108
Lattice="12.38761985805414 -0.04889724819835818 0.286878335929106 0.15789442324749112 11.84379689751949 0.3804978813094048 0.20891176159228242 0.2288514442215631 11.870945925349808" Properties=species:S:1:pos:R:3:REF_forces:R:3 REF_energy=105.23717977744091 pbc="T T T"
Au      -0.03969125      -0.10336158       0.34141199      -3.80046691       1.11807071      -2.70588103
Au       0.17622646       2.27031735       1.99663866      -1.08231713      -5.67858837      -2.99908714
Au       1.88121291       0.07366020       1.67735785       2.11515301      -0.22086181       4.97646691
Au       2.35302398       2.07114813       0.31769956      -3.94418279      -1.05891565      -2.97704565
Au      -0.04674197       0.45284223       4.27147887       0.85464423      -5.91420278      -6.28850044
Au       0.35347842       1.84410284       5.97226608       1.15092263       8.47752313       3.46953561
Au       1.80410220      -0.17029223       6.12972518       5.11212113       1.86957054      -1.58644522
Au       2.35636603       2.41610821       3.92887163       1.25632339      -3.34172859       1.32902207
Au       0.03564227       0.12821228       7.66554104      -1.37638368      -0.28073620       4.16764473
Au      -0.09565392       2.14523963       9.73739873       3.60153318       1.59481767       0.68587136
Au       2.37454764       0.13228153      10.20641055      -0.74778186       2.14745952      -1.33925468
Au       2.39040564       1.96827755       8.29100116      -3.99058175       2.47054701      -1.71526063
Au       0.29644296       3.85791500      -0.04250489      -3.28266980       1.67513412       1.71974874
Au       0.25976224       5.67184234       1.92866649     -10.25894415       9.52685213      -2.18366437
Au       1.75794323       4.20746417       2.28501736      14.53985785      -8.03284706      -8.36311365
Au       2.30768282       6.13833213       0.20519462       0.29250944      -2.88782651       0.35190914
Au       0.17726169       3.73605371       3.77543866      -6.43504638       2.60339768       9.99112453
Au       0.31812546       6.01320114       6.17791079      -0.10614553      -0.72734505      -0.03172676
Au       2.43368975       4.16198314       6.15298217      -1.96840195      -0.31544741       2.15432311
Au       2.26055350       5.83319280       3.81969824      -4.41454699       2.66982267      10.35810943
Au       0.14127989       3.87216767       7.96761949       0.41777561       1.10634727      -1.39434872
Au       0.53576280       5.89975957       9.72934607      -3.44394994      -0.43237240       3.68942178
Au       2.11643503       3.96536730      10.19663383       4.75532028      -0.42132923      -3.96260410
Au       2.32845075       6.29343510       8.28347678       4.27650143      -1.46871430      -3.32375693
Au       0.03037244       8.14708091      -0.01275641      -1.02897412      -1.46458606       1.75866525
Au      -0.21543303       9.58001094       2.47346004       6.63294113       5.96104400       0.64896188
Au       2.17418667       7.65487439       2.28080512      -1.93674397       5.57303759      -1.37880476
Au       1.91803168      10.01873751       0.32181964      -0.92481238      -3.66351269       1.81186214
Au       0.07971718       7.81335808       4.31487330       0.07153750      -1.99829981      -1.01521606
Au       0.12548466       9.65437641       5.94695925      -1.06286511       1.35700060       2.26553268
Au       2.64384027       8.32900533       6.39671698     -16.01572583     -14.87094064       3.59187865
Au       2.07851522      10.31330612       4.54487732      -0.52945448      -1.36414810      -6.23337005
Au       0.41804961       8.00792143       7.98542245       0.04283797       1.35218653       0.24886257
Au      -0.01721541      10.38262220      10.17415754       3.96457959      -1.11230480       0.94526844
Au       2.10585009       7.92318989      10.25730890       0.74727483       2.79124569      -2.08306962
Au       2.07687473      10.29954026       8.48567420       1.86813313      -2.95453478       2.12533827
Au       4.30477698      -0.07062465       0.19747318      -0.60302252       2.93158412      -4.49143926
Au       4.25761936       2.11568626       1.80508887       2.32941655      -9.61627862      12.94276802
Au       6.16127448      -0.35301538       2.11712281       0.53700334       5.35513961      -3.12554961
Au       6.08401464       1.66513688      -0.11042214       2.63151605       0.89262866       0.27553567
Au       4.26895953      -0.20354089       4.39270418      -1.03932223       3.70261255      -5.04321518
Au       4.32482715       1.94958863       6.16724778      -7.30774126       8.34989476      -2.41689559
Au       5.91650891       0.45682447       6.06475488       8.57777694      -7.91647961       2.70217566
Au       6.51595110       1.69198534       4.15316412       0.79704542       1.29223204      -2.38257276
Au       4.26104672       0.48652971       8.06697250       0.77613467      -6.83276696      -0.15822572
Au       4.30840701       1.96195713       9.91675256       1.47525830       3.33730595       3.45072121
Au       6.38444099       0.11739008       9.65318377      -3.69917360       0.15932802       4.95720619
Au       6.62043371       2.41901377       7.83301870      -3.88353131     -25.41723079      17.89123950
Au       4.22506701       3.61849381       0.36025081       0.69623121      12.09490172      -9.01492262
Au       4.06795948       6.07127938       2.44596173       5.65581926      -2.13825916      -5.85346433
Au       6.49617802       3.64781834       2.58157226      -0.62792798       0.54095211      -2.41315034
Au       6.05692833       5.52737987       0.37757008       1.03283053       2.25049274       3.27348090
Au       4.14821317       4.27174883       4.42604189       0.70191008      -4.11466350      -0.79886441
Au       4.16632083       6.38234460       6.05408229       0.69766269      -1.72800795       1.42976202
Au       6.36294299       3.84268147       6.55457961      -3.62670898      19.76458609     -22.46452923
Au       6.07408065       5.60966213       4.23874773       4.27407004       2.31008725       0.50855252
Au       4.71501305       4.39754266       8.33530910     -15.41918904      -9.01477768      -1.25365103
Au       4.69488096       6.41106621      10.19341668      -7.60711108      -3.64693370       2.44560168
Au       6.27327778       4.33180316      10.29205574       1.85544054      -6.47354270       3.30840749
Au       6.31095783       5.72559079       8.44508375      12.62507009      12.80261226      -4.48625011
Au       4.04443798       8.22901604       0.14206783       1.78385295     -23.99817911      24.87805020
Au       3.99381028      10.15656371       2.11382612      -1.82927387      -4.45763185       5.59876411
Au       6.07730615       7.98906411       2.67524504      18.49814096      -1.42232858     -19.68696336
Au       6.08253635       9.69364106       0.68244461       3.34107794      -0.18761550      -2.19188641
Au       4.68156796       7.95644228       4.02139134     -19.12574708       1.60474489      18.39288256
Au       3.97639022       9.75168221       6.05363842      16.52484277      11.73130288       0.71662670
Au       6.54565570       7.68330770       6.33764133      -2.25973757       1.76997780       0.48986201
Au       6.55043582       9.98655923       4.17732323      -0.75602527      -1.95559059       5.89591354
Au       4.61704370       8.20445885       8.45444252      -0.78009189       1.22060502      -2.50696148
Au       4.13972464       9.74324424      10.64721266      -0.33207717      23.45984260     -25.61088764
Au       6.39122857       7.90288446      10.28042660       6.22285610       4.33857663       1.14903539
Au       6.59495449      10.36244836       8.20364167      -1.17688475      -3.10239154      -0.80311128
Au       8.59825998      -0.41271057       0.23541066      -6.51244682       8.31709923       2.23989074
Au       8.42672769       1.66422781       1.94543120      -5.47019174       2.76533548      -0.50191398
Au      10.29312663       0.37037973       2.29439031       6.06273896      -4.18706400      -2.35884153
Au      10.69575086       2.17670718       0.27638687      -0.17510715      -4.34689258      -3.81832071
Au       8.55586125      -0.34204492       3.83554940      -9.10084429       6.90559065       0.31425831
Au       8.65272775       2.29324738       5.97625409      -3.15815874      -2.76090767      -2.24520401
Au      10.45208810       0.15849067       6.46872941      -2.20595459      -1.61255011      -1.70361925
Au      10.50145527       1.93955951       4.15881080      -2.26945968       1.91075128       0.31253371
Au       8.33839342       0.24151428       8.39920868       3.44294429      -4.11740056      -6.97279991
Au       8.42193962       1.93034917       9.93645337      -0.02540850       3.33809839       6.44744481
Au      10.69392111       0.40321684       9.81574268      -4.38741348      -1.63824843       1.59270390
Au      10.14185388       2.16133300       7.93338414       5.39947802      -1.44687846       2.84992896
Au       8.57077607       3.76360187       0.03318240      -6.09901169      -9.05128594       4.76436750
Au       8.70895546       5.65986757       2.18776822      -2.64056476       3.04844836       0.65310062
Au      10.13335737       3.63771855       1.96130731       2.22298106       2.51587488       5.86708204
Au      10.04628009       5.62086392       0.07201977      10.66902098       5.73717364       5.75420088
Au       8.45359702       4.13618957       4.18997119      -1.07047743      -1.34131115       1.03998597
Au       8.29620921       6.00734700       6.61697808       2.20590231      -1.92449646      -1.24839391
Au      10.76100921       3.65639036       6.04656960       1.34828063       3.69693294       0.26969023
Au      10.26099691       5.75694462       4.44328232       1.95867400       2.02178943       0.17078063
Au       8.38332916       3.70730506       8.13094011       4.77865063       9.93656693       2.15726509
Au       8.53045594       5.76134734      10.54072295     -13.04617717      11.64142120      -7.28754552
Au      10.19131065       4.43776762       9.93764336       7.98322119     -10.01700003      -4.08335004
Au      10.81609823       6.35584089       8.72693472      -0.66577333      -0.96104612      -5.77163754
Au       8.60529689       8.08684847       0.55890410      -2.26805912      -3.67109120      -1.37182892
Au       8.64800764       9.58301626       2.51567921      -3.77084865       3.92287565       0.23678884
Au      10.47447642       8.17931651       2.44146101      -1.46025697      -9.29693068      -0.05298708
Au      10.36266683       9.94073366       0.36931750       9.12572519      -3.88455137       2.62339817
Au       8.14512817       7.92185207       4.33541095       1.96081692      -2.42514189       1.01694536
Au       8.28050376       9.84566775       6.33692071       0.17281411      -0.12305728       0.93626210
Au      10.39473183       7.87311388       6.57679817       0.09144520      -0.05437411      -1.36627202
Au      10.36173367      10.26445320       4.84620724       7.86558223      -6.42752084       1.56906452
Au       8.48767904       7.87852303       8.38722926      -0.76703750       0.96512634       1.08865980
Au       8.84293345      10.15001199      10.64430219      -4.42934036      -1.55240674      -6.23852532
Au      10.62855045       8.15216053      10.21570996      -0.59167838      -2.15370632       7.02101464
Au      10.78178427       9.74357435       8.62594930      -1.48442777       4.29923310      -6.21656962
108
Lattice="12.457030273870085 -0.29431773015876495 0.09150379243353587 -0.3239234014160524 12.349027521826512 -0.3324054249411838 0.34875185816050086 -0.2900736559697582 12.535559215936637" Properties=species:S:1:pos:R:3:REF_forces:R:3 REF_energy=54.318393386467825 pbc="T T T"
Au       0.24070734       0.07494560       0.22609928      -1.50823628      -0.51251249      -0.32132084
Au       0.24022995       2.36664729       1.83656565      -2.73393785      -0.70840555       1.72131235
Au       2.20635774      -0.42135921       2.19744306      -2.31370068       2.32058243       1.84569639
Au       1.75921752       2.06107879       0.01779414       2.56542588       1.11323478      -2.47349054
Au       0.08903874      -0.07858580       4.38965845       0.73400861       0.64343578      -0.39650242
Au       0.35978447       1.90685700       6.29205346      -1.53376609      -0.10524114      -0.55134769
Au       2.59553663      -0.49830291       5.97671309      -0.30495465       1.62607072       0.47051325
Au       1.80860231       2.03871771       4.07325611       3.15143256      -2.39145493      -0.72385418
Au       0.45195837      -0.05639731       8.22394968      -0.18864630       0.35885279       1.49167115
Au       0.55533255       2.02646892      10.20732640      -2.19840366      -6.88275069       7.87152019
Au       2.25815187      -0.43922902      10.18763930       0.26319149       0.35792102       0.88581610
Au       1.97291242       2.16463783       8.26721243       9.43398617      -5.87071059      -2.41395186
Au      -0.20131861       4.30009107      -0.06840736      -0.22830643      -0.76423984       2.04707494
Au       0.24507560       6.35040935       1.90655281      -4.45056043      -2.25054328       0.78845313
Au       1.92741013       4.40824918       2.16791688       1.20708531      -2.08076578       0.70295771
Au       2.27516574       5.82024367       0.12947486       0.63774706      -1.13004519      -3.34685696
Au       0.11793526       3.71718863       4.13832433      -2.01386699       2.06605582      -0.43267705
Au       0.16129132       5.63931908       6.06503126       5.41886494       5.23617075       2.12788626
Au       2.40289278       3.75853994       6.13906690      -3.04216029       0.30885349      -1.86121416
Au       1.98431193       5.87031150       4.36232117       0.61124758      -0.07722658      -0.88366184
Au       0.34956200       3.61143080       8.64386540      -8.65944931       9.85722827      -6.23171160
Au       0.43202487       5.75991246      10.54961390      -7.28728018       7.51378026      -0.95289782
Au       1.94395942       4.22484529      10.48329596       8.86496812      -9.05012934       3.17764383
Au       2.26681126       5.60443095       8.52371412      -5.32338597       5.14999551      -4.35635021
Au      -0.59274933       8.02534746      -0.50718612       6.85950413       8.75002455      -1.35502250
Au       0.00960349      10.00107404       2.14076593       0.83656431       7.04127105      -9.29383711
Au       2.04336332       7.76421662       1.48725075       1.87629475       6.02285049       1.80824535
Au       1.44756188      10.32654346      -0.02056844       0.80569270      -1.28103182      -2.01111183
Au      -0.30885606       8.41552087       3.60270167       1.50231497      -8.89600743       9.57327979
Au       0.14521084      10.48805578       6.20846181      -0.84448547      -2.18523083      -0.78644036
Au       2.19309533       8.30897941       5.69354766      -7.58932932      -5.34660383       5.01521071
Au       1.68391185       9.84505104       3.92039064       2.96540187       3.27043930      -0.44477322
Au       0.21270281       8.14331205       8.41634074      -1.27111532      -1.63288581      -0.51042555
Au      -0.25513923      10.23682510       9.92372802       1.26386633       0.31387587       0.61746360
Au       1.96745633       8.10982777      10.62411019      -0.17204172       0.00144130      -1.44931765
Au       2.12797167       9.69202113       8.18833276      -0.69099897       1.04100341       0.73350938
Au       3.78622387       0.20921066       0.19816389       0.55571082      -7.12325784      -9.29916150
Au       3.89498378       1.58509654       1.81118681       1.47263342       7.78802610       8.45277702
Au       6.67066219      -0.22865596       2.36227652      -0.58585615      -3.64417447      -4.46299992
Au       6.28365458       1.96894291      -0.29354480      -2.10769243      -1.86277398      -0.20792464
Au       4.62541361      -0.35372302       4.27143478      -1.25576216       1.57334292       2.04416526
Au       4.43255288       1.93441504       6.59535550      -0.32064896      -0.89019760      -1.45070906
Au       6.12164226      -0.28551350       6.23675902       1.41463907      -0.63875269       0.98640183
Au       6.27011351       1.50969519       3.87614642      -1.71281094       4.88896048       3.62376116
Au       4.20730510      -0.44772466       8.32986331       0.06110936       0.70020628       0.15089867
Au       4.47777278       1.82604059      10.35084842      -0.22907630      -0.16796107       0.05861987
Au       6.44616817      -0.61478409      10.56269624      -1.34558313       0.60097534       0.88884183
Au       6.26066187       1.34647782       8.28211050       0.69705542       0.72367958       1.15273997
Au       4.02367510       3.79871089      -0.02233420       0.68434996      -0.07251426      -0.12002124
Au       4.10112455       6.18966399       2.07191721       1.17573930      -1.45291276      -0.53866184
Au       6.30061242       3.77380935       2.25415573      -2.13514755       1.08423965      -0.22975259
Au       6.10586894       5.97248945      -0.01964083      -0.13552483      -0.21128771       0.00138347
Au       4.04914544       3.93173677       4.28758375       1.40567185       0.11986573      -1.27059551
Au       4.47387996       6.26821678       6.13498450      -0.18185752      -0.87111259      -0.60922161
Au       6.31113669       4.06404314       6.05429025      -0.26226386      -0.40261190       0.04415984
Au       6.45270995       5.92597699       3.75075430      -4.27320559      -4.66306438       1.83747094
Au       3.93451751       4.09844873       7.92119327       6.29434638      -1.96264065       1.59230438
Au       4.10549742       5.70198384      10.04899345       3.57169707       0.23944261       3.88209613
Au       6.26228191       3.92160965       9.99299571      -1.13726420       0.12792536       1.39522522
Au       6.56079341       6.11921088       8.13439792      -1.79810621      -2.02961138       1.38102813
Au       3.65928481       8.21525143      -0.49536431       2.06699668       0.21079353       0.18301798
Au       3.83246806      10.51114809       2.23912819       1.32866472      -4.57737037      -3.42599391
Au       6.28837543       7.88594975       2.06354019      -2.98014986       0.53411039      -2.40038224
Au       6.12290406      10.05397076      -0.11854172      -1.08506406       0.03485144      -0.56452062
Au       3.66122723       7.80513401       4.00748803       4.47517440       0.44684686      -3.59527524
Au       3.78778423       9.78043902       6.29031978       6.32563074       3.54940544       0.11523924
Au       6.57824853       7.98526486       6.36318367      -1.82356025      -0.06299916      -0.47126825
Au       6.46708692       9.76028290       3.90586360      -1.39564641       2.44347386       0.61748103
Au       4.08295390       7.60523609       8.37020126      -0.84677828       1.25710627      -1.41970293
Au       4.12005703       9.92648386       9.92033447      -1.19854464       0.71016776       1.73698041
Au       6.04793407       8.16948100       9.90616690       1.41773706      -2.32930724       3.41265929
Au       5.97736204       9.78396243       8.11794489       0.63546652       2.64838981      -2.20102535
Au       8.37384299      -0.20157984      -0.27170520      -5.90559275       0.36384849       5.80070595
Au       8.10375889       2.08848453       2.20493245       2.77790495      -1.58832214      -1.70477585
Au      10.55830311      -0.15744778       2.37583544      -0.02338554      -0.05036876      -0.70920917
Au       9.97335811       1.70619319       0.05247420       1.27649171       1.31894991       0.46243606
Au       8.29170266      -0.01731994       4.22558027       1.93095696      -1.27112185       1.67118188
Au       8.63997762       1.99853502       6.27721442      -0.40822437      -1.25865820       1.60793717
Au      10.88287629      -0.32060245       6.62425221      -1.30726694      -0.49339072      -0.68692337
Au      10.31559458       1.71526883       4.22450083       2.09853424      -0.92174874      -0.10711041
Au       8.22117186      -0.47075225       8.75191214       0.94460449      -0.91073990      -3.13439480
Au       8.64599196       1.36223665      10.32298548      -0.00584532       2.17264025       1.24199892
Au      10.42476752      -0.86713432      10.86452087       6.37376004       1.07548761      -4.38121172
Au      10.51793843       1.46555210       8.45667349       0.27616416       0.50581910       0.08923242
Au       7.80256395       3.74254837       0.11262749       2.25211836       2.60709761      -0.74012417
Au       8.30786628       6.31540109       2.08034585       1.87797039      -2.15556467      -2.69092107
Au      10.31301410       4.03187817       2.37737352       0.42881907      -0.60649878      -1.24246906
Au      10.39545362       6.29981796       0.13565458      -7.72151648      -8.18199890       2.27668976
Au       8.60640415       3.51472273       4.31465126      -1.74859559       3.07084155      -0.02379293
Au       8.26917204       5.87574815       6.28586135       1.43003620      -0.83185248      -1.14011373
Au      10.82311212       4.11370337       6.06381356      -7.50575226      -4.60848971       0.69036316
Au      10.52215028       6.03254460       3.96576448      -0.54121364      -0.96221445       0.09422775
Au       8.12830944       3.35950582       8.52911470       1.44112936       0.45988306      -1.03106693
Au       8.42511149       6.12500603      10.31307793      -2.09574447      -3.47618435       2.77448268
Au      10.94584423       3.55861049      10.64669642      -2.07047794      -0.22571795      -0.36088724
Au      10.11925352       5.78023592       8.50873775       2.67479808      -2.51341148      -1.42076222
Au       8.42849925       8.29453967      -0.53102451      -1.35321037      -0.17684143       2.20274496
Au       7.99103786       9.68525762       1.56068371       1.67354427       1.82858310       1.35095796
Au      10.36327944       8.10968119       2.16288596      -4.08458565      -0.79945931      -3.61912775
Au      10.40328763      10.23713667       0.03994591       0.09557827      -0.49382704       0.58040731
Au       7.84415950       7.72741010       4.11543687       5.65059528       3.05016368       2.09599357
Au       8.49562685       9.55320772       6.06348109       1.09012601       1.33220894      -0.21535653
Au      10.48111548       7.46606924       6.04351360       0.07358316       0.83127741       1.09072519
Au      10.54368092      10.08619052       3.76789507      -3.73602721       1.85009630       2.55436063
Au       8.60346406       7.72151590       8.47911413      -5.44866262       1.15703063      -5.66640161
Au       8.16453215       9.92517260      10.14784941      -2.06303573      -1.69434773       0.51125758
Au      10.27539622       8.05493824      10.05102384       5.98064141      -1.12000949       4.18191695
Au      10.01127291       9.72575061       8.33039943       2.25673021       4.17027856      -3.77449526
108
Lattice="12.414400303990396 0.3989946960534118 -0.16291035439106805 -0.07364643909497429 11.87791204163307 0.0598975436984269 0.3980640298103338 0.16070480809652685 12.24462529154007" Properties=species:S:1:pos:R:3:REF_forces:R:3 REF_energy=99.38116179038995 pbc="T T T"
Au      -0.08610473       0.33223901      -0.00246672       1.81820627      -4.19299877      -1.79011861
Au      -0.23843687       1.89873891       1.70448714       0.06849404       1.69789130       3.80949097
Au       1.89699395      -0.29258172       1.97624309       0.47792908       3.17393765      -2.99388727
Au       2.16442452       1.92078509      -0.08086338      -8.71451498       4.33762929       9.22060738
Au       0.50005543       0.25513877       4.11422707      -2.83274056       0.95233593       0.15073607
Au       0.01439031       2.37760185       5.92037326       6.49940912      -1.70659918       6.65898039
Au       2.12837292       0.47410337       6.11879456       0.82372433      -0.71360908       1.22141663
Au       2.38333468       2.17231523       4.18712433       2.39946540      -4.23365878      -2.27257328
Au       0.10488265      -0.09976581       8.02107741      -0.11216737       2.28196697       0.14629122
Au       0.04379887       2.41302417      10.04043488       2.14087849      -2.10812819       0.96792356
Au       2.44997826       0.43399933      10.40376197     -10.04724166      -8.00605622      -4.36852168
Au       2.27287734       2.13429351       8.54167613      -0.13550941      -0.17333963      -2.87407715
Au       0.11512917       4.21101477       0.34200902       5.51036001      -6.51756991      -7.35248826
Au       0.25959265       5.71388363       2.12045624      -9.33321199      12.15850411      -2.32990748
Au       1.79237724       4.17492497       2.39786455      26.59609812      -6.47299068     -22.54053087
Au       2.04242915       5.95183313      -0.36852875       0.52142365       0.46674403       0.86342883
Au       0.47595881       3.69527443       3.73437089     -20.44782047      -6.02162846      17.93340947
Au      -0.04093792       5.67173277       6.11635569       2.55282908       1.16406058      -0.82732671
Au       2.25642016       3.95621149       5.75589515      -0.01554105       3.04193574       3.96897006
Au       1.85421180       5.96662691       3.73276157       4.54518373       7.88429703      10.12427527
Au       0.39937899       3.83205699       8.02470663      -1.74902244       1.62962109      -1.76828101
Au       0.21019743       6.00616440       9.83513175      -2.17476913       0.65394385       1.84301505
Au       2.06589423       4.44993545       9.79765498       2.86291946      -2.42315529       3.78951304
Au       2.30415340       6.10419328       8.03235590       0.22961255       1.64047532      -2.24673989
Au      -0.10403601       8.14307294       0.31289466       0.08603696      -4.05148614      -4.58542400
Au      -0.18674919       9.78303652       1.88467178      -0.89533512       4.47765052       2.82091059
Au       2.07020382       8.15849796       1.83615315      -0.45357261      -0.20988823       0.56437198
Au       1.87228328      10.30906684      -0.33838167       0.54364285      -3.24981063       2.97302220
Au       0.05220607       8.14142273       3.84183667      -1.09537751      -1.06286431       0.67996856
Au      -0.22444080       9.68917674       6.50728582       7.04482266       7.36181211      -1.41640037
Au       1.82640893       7.81611713       5.76011943       0.55650608       0.16624885       0.74965315
Au       1.82888627      10.11444685       3.89761578       1.03855515      -3.52137509       3.42388153
Au       0.27164803       8.09790087       8.48256349       2.23478444      -0.78909820      -0.81912325
Au      -0.12585889      10.31487628      10.34906430       7.84750187      -5.22342715       1.34689959
Au       2.08188390       8.33737773      10.50102761       0.69569463      -0.58751763      -0.99607216
Au       2.07648149      10.40693063       8.14941237       1.25186186      -1.72643088       0.26289760
Au       4.22087300       0.52071786      -0.16507459       1.57498862     -16.61784012      17.58656507
Au       4.44273051       1.99415367       2.23582117      -1.39729806       0.42018628      -1.66322173
Au       6.35413129      -0.00063396       1.89053658       1.80356265       3.49801624       4.01938529
Au       6.04903425       1.84163607      -0.44760444       5.83533651       6.56691072       2.19836940
Au       4.14800437      -0.19820618       3.75962852       0.06542532       4.22871709       4.98096768
Au       4.50503770       2.35947563       6.26885643      -1.78242627       0.44594949       0.93894495
Au       6.25995470       0.59186532       6.11592191       0.45599100      -4.04257166       2.08489308
Au       6.02843483       1.94769255       4.16454585       0.91536736       1.81092697      -2.27262864
Au       4.14186460       0.24596893       8.50219966       1.53768919       0.57737948      -3.35098394
Au       4.06078514       1.85983475      10.55400155       8.53968320      19.36714935     -21.10756449
Au       6.60663124       0.03494600      10.44024099       0.55713982       0.63855379      -5.17343400
Au       6.76460601       2.31524622       8.18904490      -6.14732487      -5.02031434      -4.11774372
Au       3.93213437       3.73271800       0.04131648       0.62793886       1.97505575       0.06850161
Au       4.00345837       6.22963522       2.28541234      -1.27435888      -5.14775409      -6.94370309
Au       5.86352378       4.26215652       1.76430598       0.74888959      -1.04692308       1.31760787
Au       6.46948773       5.94138497       0.03710970      -1.50433581       1.53270941      -2.20765488
Au       4.28910530       4.06280372       4.18930077       1.05416006       1.15565925      -0.85410460
Au       4.48095794       6.20585689       6.30469576      -0.93716020      -0.96066425      -0.09407901
Au       6.76841701       4.17457168       6.07248976      -9.60856860      -0.69140561       1.90680551
Au       5.91304084       6.42884448       4.04621941      16.54751380     -13.97162616       2.69086919
Au       4.30532979       3.87469636       8.44047106       0.80333746       0.82275770      -0.16870180
Au       4.34903603       6.35194020       9.89899906      -0.04776544      -2.31593034       2.20067221
Au       6.88361107       4.03547544       9.90199867      -5.64335801       7.47600762       3.89967639
Au       6.72293924       6.57565610       7.88129505      -6.99789327     -11.26509020       2.29217499
Au       4.06487652       8.23840218       0.28832083       0.75005640      -0.61533121      -1.64915832