108
Lattice="12.200622474093723 -0.11277518865187143 -0.19878920404970354 -0.10564159381066272 12.045712552151405 -0.05163152912022647 0.1554387615237153 -0.044858770560529636 12.306530070205769" Properties=species:S:1:pos:R:3:REF_forces:R:3 REF_energy=10.766914998638224 pbc="T T T"
Au       0.02224521      -0.19695412      -0.12450531      -0.01647898       0.93641887       0.29062978
Au       0.18081075       2.04181168       2.21430183      -0.45085694       0.20770887      -1.33437801
Au       1.98339155       0.06035262       2.12676687       0.46111739      -0.98763528       0.40103608
Au       2.20610999       1.79609349       0.13915810      -1.86439393       1.07439928      -1.49990801
Au       0.00844901       0.12024404       4.12006186       0.46243223      -0.84054961       0.26127025
Au       0.08597227       1.92894053       6.27604882      -0.31555755       0.53430787      -0.61310144
Au       2.01676189      -0.04432870       6.14420330       0.44644582       0.01848688      -0.33580703
Au       2.16465150       1.96252411       4.13255306       0.24343790       0.19067088      -0.10095519
Au       0.09774348       0.03382241       8.27401077      -0.76109553      -0.49334452      -0.27624565
Au       0.19570199       2.09955637      10.26312549      -0.29357069      -0.35686252       0.34401619
Au       2.04028065       0.01567816      10.05315742       0.52437330      -0.13969953       1.02909514
Au       2.00703800       2.07578006       8.13664465       0.47727336      -0.17889253       0.00381489
Au      -0.03599620       4.21019628      -0.12314152      -0.40956171      -1.90911891       0.74089979
Au      -0.21909324       5.85992886       1.92307332       1.02074187       0.74639269       0.63225086
Au       2.11449768       4.09929400       2.02694188       0.28621876       0.06173640      -0.18912903
Au       1.88263484       6.01275717      -0.25296428       0.58646593       1.09357953       1.13054507
Au       0.08931943       4.04600362       3.89368480      -0.21418085       0.04605241       1.11974342
Au       0.15170324       6.10579750       6.05073877      -1.73575869      -1.22675853       0.79713329
Au       2.13009326       4.01460945       5.96019510       0.05948116      -0.23542507       0.43921339
Au       1.90973292       6.06238994       4.21665005       1.63238729      -0.46483454      -2.04170222
Au       0.09892570       4.01245693       8.24581555      -0.28426777      -0.29749086      -0.74801003
Au       0.05294282       5.80714278      10.18822750       0.08338447       1.64386951      -0.22890983
Au       2.28785640       4.08103806      10.37606911      -0.67185225      -1.31030621      -1.85902102
Au       1.94537476       5.97653767       8.17929734       0.96296031       0.07054032       0.11180297
Au      -0.18645753       7.91086313       0.07839215       0.97955249       0.78103079      -0.17988241
Au       0.00661257      10.08949235       1.91485705      -0.61229606      -0.32223302       0.83510138
Au       1.99162358       7.81343069       1.83551421      -0.98447049      -0.06609728       1.47030694
Au       1.95270276       9.94316684       0.11011009      -0.18602922       0.31890209      -1.08451592
Au      -0.03002092       7.84894777       3.87489261      -0.29089008       0.88003634       0.18071131
Au       0.07978787       9.88426710       5.98536371      -0.25973708       0.60497686       0.47507777
Au       2.01025162       7.89487402       6.13234331       0.87139578       1.38062113       0.36918385
Au       1.99149234       9.84892525       4.13991522       0.23347617       0.34342035      -0.66747769
Au       0.00354165       8.04490292       7.97150929       0.54372421       0.48442981       1.41502829
Au       0.09205765       9.91385143      10.21016375      -0.37297272       0.36750411      -0.37397712
Au       2.01162989       8.17280116      10.08022610       0.64355288      -0.70092519       0.13346415
Au       2.21417210      10.15657873       8.09659583      -0.67062989      -0.91944667      -0.07871517
Au       3.98847540      -0.08517751       0.12947257       0.65655017      -1.09872656      -0.80426930
Au       4.12269218       1.98046266       1.79058717       0.20471524       0.43015371       2.57447524
Au       6.26535491      -0.23034187       1.77048269      -1.06635052       0.18471659       1.20743483
Au       5.99264754       1.94154661       0.05011573       0.42058944      -0.13049013      -1.96506773
Au       4.23471860      -0.17349180       3.98474543      -0.31260946      -0.04456631       0.04629579
Au       4.23908271       1.95843462       5.94819349      -0.43579450       0.17484765       0.08589086
Au       6.13645270      -0.02844266       6.24316070      -0.45601366      -0.88412267      -1.29352047
Au       6.19924205       1.74275631       4.07618014      -0.56012765       0.67146793      -0.93315241
Au       4.07084592       0.07736599       8.09164628       0.52974773       0.05153220      -0.07418293
Au       4.05864554       1.91982359      10.08265259       0.45592643      -0.00567008       0.41190235
Au       6.12417213      -0.06446518      10.26298563       0.93807106       0.74096506      -0.02355766
Au       6.32031190       1.88039327       7.92307503      -0.59389247       1.04127873       1.51394087
Au       4.02525029       3.95115838      -0.20468200       0.70333659       0.20976305       0.79356635
Au       4.19841778       6.16744739       1.77970839       0.06897446      -1.65660963       1.26195631
Au       6.20930238       4.00966008       1.83905774      -1.63830901       0.51408057       0.42762019
Au       6.10155289       5.81792596      -0.29744776      -0.15443478       0.71807349       0.17669190
Au       4.28086884       4.01724081       3.91999216      -0.35666118      -0.08040061       0.07872061
Au       4.07178632       6.14287043       6.03667623      -0.00313945      -1.64920694       0.94426733
Au       6.30299457       4.08394422       5.97432245      -0.66484407      -0.27503109       0.37809603
Au       6.17770696       6.01571516       4.08545107       0.21592559      -0.52399371      -1.25479829
Au       4.08165780       3.76863454       7.98929550       0.43437231       0.80427621       0.16092395
Au       4.19020714       6.05792231      10.26578235      -0.15170999      -0.10268593      -0.73420503
Au       6.22810231       3.75537087       9.94575206      -0.21220362       0.29982116       0.31438780
Au       6.26397298       5.95631341       8.19222785      -1.45988946      -0.51780662      -0.99913310
Au       3.86156181       7.95585257       0.06698363       1.07659321       0.89846811      -2.29952591
Au       3.87338515       9.81763636       2.00318596       0.40876472       0.79361594       0.57779423
Au       6.09360450       8.14742318       2.07986009       0.13407821      -1.76858376      -1.34636319
Au       6.11204873       9.78936909      -0.15026609      -0.29558889       0.57669336      -0.15571637
Au       4.20670012       7.95139082       4.18635089      -1.17748778       0.05917180      -1.58769785
Au       4.11755407       9.82185553       6.04768452       0.02835845       0.98383119       0.09448626
Au       6.18584974       7.77780564       5.95730923       0.64264677       1.26271505       1.26469963
Au       6.15092192       9.82958182       3.89909177      -0.08673454       1.71710507       1.48793684
Au       4.17603640       8.07319382       8.11107401      -0.53947741      -0.44921960      -0.00427906
Au       4.29111481      10.13325210      10.13552720      -1.27737379      -0.57498902       0.11643282
Au       6.02352557       8.04587776      10.01888193       0.73586064      -0.21502835       0.65299200
Au       6.25303094       9.98665809       8.01956971      -1.38498328      -0.44760008       0.98501468
Au       8.15630166      -0.06205995       0.03736700       0.51345153      -0.34130513      -1.27015860
Au       8.02779306       2.09622222       1.72249337       0.43564106      -1.44952242       1.61267882
Au      10.30077317       0.06641147       1.84305155      -0.17564734      -0.52395271       0.11371203
Au       9.97880534       2.03550645      -0.03711698       1.22328045      -0.24740935      -0.90311663
Au       8.12006419      -0.08269907       4.09343818       0.41598420      -0.22634761      -0.78825358
Au       8.07067796       1.96159622       5.98438591       1.33643276       0.26444331      -0.20373839
Au      10.11467108       0.01616737       5.91747970       0.42721105      -0.16840257       0.69008535
Au      10.37516183       1.92626006       3.93371776      -0.97333041       0.49342530       0.06519557
Au       8.20669653      -0.14482095       8.19901375       0.58094418       0.92058183       0.26822241
Au       8.31667402       2.00452904      10.08274400      -0.30249955      -0.56221028       0.19999079
Au      10.20129259      -0.29661555      10.20044645       0.58949945       0.94754901      -0.25262935
Au      10.21931488       1.88742302       8.01782775       0.12678016      -0.14114027       0.00161265
Au       8.07098959       4.01361389      -0.10624300       0.21645871       0.04539584      -1.73767864
Au       8.29565550       5.79575792       1.92215417      -2.63413504       2.32711397      -0.15915768
Au       9.98317406       4.03694910       1.91474470       2.17947891      -2.23778244      -0.12222915
Au      10.08571612       6.04977121      -0.20947239      -0.73582399      -1.09469367      -0.53528752
Au       8.04146181       3.91410144       3.78077276       0.13074896      -0.61463762       1.66951593
Au       8.31779134       6.01762678       6.09904945      -0.97006053      -0.94283284      -0.24257187
Au      10.35948823       4.01545784       5.94313789      -0.02148496      -0.75941351       0.32239342
Au      10.01363208       5.86326994       4.08433714       1.11408913      -0.03978962      -0.67992803
Au       8.38179649       4.01729656       7.93638897      -0.30337658      -0.40621770       0.40848758
Au       8.08823976       6.06219911       9.95386619       1.00236972      -0.69568880       1.53191419
Au      10.29515882       3.83517656       9.99337795      -0.41971612       0.15665402       0.38871650
Au      10.28894325       6.08279874       8.12393344       0.08016059      -1.08196334      -0.17662622
Au       8.05778562       7.93157618      -0.00388148      -0.14512504      -0.18756172      -0.47247544
Au       8.10286295       9.95408948       1.94867028       1.06329299       0.20853452      -0.07705606
Au      10.01752565       7.75451344       1.99305423       0.90559862       1.33290558      -0.47654236
Au      10.12205541       9.81006531      -0.28946477      -0.30478193       0.54742397       1.03679791
Au       8.31110691       7.99410811       3.98967439      -0.75294466       0.31427419       0.36301038
Au       7.95229850      10.12807764       6.13482578       1.15707449      -0.96428942      -1.50802592
Au      10.19359002       7.83782189       6.03240844       0.33057295       1.03320499      -0.85185075
Au      10.26431341      10.04361011       4.08431169      -0.55376498      -0.36640049      -0.76754674
Au       8.22168859       7.85387590       8.03657727      -0.42100669       1.02442741      -0.08589647
Au       8.30177282       9.83166506       9.97245262      -0.85515263      -0.22461301       0.86726959
Au      10.31622380       7.87688437      10.18199119      -0.26241472       0.02240922      -0.96701617
Au      10.04025001       9.84848721       7.90290940       1.05148887       0.59452085       0.08953587
108
Lattice="12.020052529664296 -0.18059312465761307 0.08814314688595262 -0.12524306763791418 12.288521633417023 0.18592726167392723 -0.14081418383353034 -0.08666768154140081 12.178080900197424" Properties=species:S:1:pos:R:3:REF_forces:R:3 REF_energy=12.966320107469784 pbc="T T T"
Au      -0.02778031      -0.02962335      -0.11315776      -0.39985142       0.26672722       0.06091094
Au       0.11134313       2.10627805       1.92221534      -1.52587894       0.24967964       0.25998439
Au       1.78164867       0.06052971       1.85071372       1.35804077      -1.20220235       1.02365705
Au       2.13463488       2.02975867       0.21771268      -0.13086231       0.68896346      -1.84508505
Au       0.06180455       0.12884821       4.15688738      -1.10501819      -1.28326769      -0.49097332
Au      -0.06063415       1.87397721       6.21108694      -0.10852084       0.73065288      -0.24459761
Au       1.96985799      -0.09156936       6.12716749      -0.07713258      -0.29797930      -0.07744189
Au       1.82843274       1.95086975       3.95471775       1.12950849       0.80095173       0.73590462
Au      -0.12996827      -0.07100547       8.26182944       0.00013019      -0.02194445      -0.64909471
Au      -0.12734707       2.13941129      10.36655577       1.51733820      -0.97291988      -2.05968561
Au       1.70559198      -0.06346454      10.08278475       1.61257105       0.76775019       0.41170947
Au       2.02912237       1.95784082       7.99563308      -1.71338316      -0.48468615       2.02112986
Au      -0.15574504       4.16572915      -0.10617821       0.83840009      -0.45651919       1.97727513
Au      -0.13445921       6.27846495       1.93432435      -1.15628142      -0.81945658       1.27137318
Au       2.01660552       4.12182408       2.03464121      -0.63479811      -0.89122028       1.46177638
Au       1.78580722       5.95512487       0.29534537       1.49900000       1.03073177      -2.15458511
Au      -0.01791924       4.01768114       4.25475423      -0.17514802      -0.21660500      -0.57347495
Au      -0.29169414       5.95169813       6.06102927       0.84134214       0.91543067       0.98044759
Au       1.99661227       3.98629947       6.22273725      -1.00442991       0.84999656      -0.20632993
Au       1.78676294       6.19619205       4.28768055       0.50601517      -0.73686231      -0.85593896
Au      -0.17032065       3.92210829       8.23271646      -0.04859681       0.22699183      -0.30762988
Au      -0.27751253       5.93135502      10.28768341       0.89524156       0.64855206      -0.95106042
Au       1.84941276       4.10723483      10.14199083       0.44285202      -0.28863310       0.32568160
Au       1.73696540       6.11259266       8.30679882       0.02214051       0.02160976      -0.54428538
Au      -0.11814997       8.16929166      -0.02663050       0.43719091      -0.10232949       1.77135745
Au      -0.14007061      10.41052129       2.03009867      -0.25039195      -0.96447612       0.32250025
Au       1.92356486       7.95516064       2.09847177       0.48892679       1.03990757       0.12397891
Au       2.00343060      10.23720035       0.00208284       0.34921097      -0.06191139       1.47546016
Au      -0.14970089       7.99508885       4.13272359      -0.56243752       0.82935288      -0.27104929
Au      -0.06719455      10.10040072       6.22533557      -0.63931281       0.89519159      -0.54277495
Au       1.84957529       8.26022539       6.07628383      -0.62340382      -1.51299070       1.07721880
Au       1.87220222       9.99376261       4.06632504      -0.43673229       1.02044913      -0.73359267
Au      -0.28908234       8.22245501       8.05911563       0.69038971      -0.91076262       0.44157730
Au      -0.04368673      10.13927876      10.43880091      -1.42372380      -0.10037085      -1.14047842
Au       1.69125185       8.02515012      10.37784911       0.68167906      -0.43344720      -0.66326713
Au       1.75677561      10.15555254       8.41205140       0.32886256      -0.18775239      -0.68493735
Au       4.06712224       0.07415270      -0.13602445      -1.36244272      -1.48893458       0.85536171
Au       4.00556945       2.01392634       2.13288849      -0.52700988      -0.60048753      -0.34144071
Au       6.02208132      -0.01520595       2.21136628      -0.10223055      -0.38603244      -1.36752414
Au       5.88099159       1.79961591      -0.09535041       1.67984659       1.30151679       0.67003418
Au       3.82311730      -0.02670584       4.05534069       0.09621627      -0.39892744       0.07893588
Au       3.85519909       2.10853578       6.30947973       1.08292541      -2.16628518      -1.37154724
Au       5.95517579      -0.15023022       6.04128831      -0.16702255      -0.03137884      -0.25272324
Au       5.92617518       1.89326881       3.93720049       0.60003514      -0.85949190       1.81883570
Au       4.01623871      -0.14254685       8.03724137      -0.87440511      -0.58217441       0.09068751
Au       3.93496985       1.89473349      10.13426169      -1.00677373       0.30763033       0.10393151
Au       5.78500541      -0.33886296      10.19368116       0.97987525       0.26675113      -0.26107325
Au       5.84545400       1.71614360       8.31874270       0.49404862       1.14744868      -0.78779574
Au       4.08825019       4.03198640       0.22691696      -0.80424982      -0.47440224      -0.77591023
Au       3.91299583       5.93717960       2.15906410       0.24097189       1.06330351       0.34142162
Au       5.86983633       3.97237855       2.32399544       0.22271052       0.49672584      -2.24388476
Au       5.88961708       5.94032019      -0.01154418       0.77603479       1.93280146       2.39579709
Au       4.07156951       3.81306230       4.31369859      -2.93523648       0.72105765      -1.83002809
Au       3.69836436       6.14179301       6.12884551       0.65647450      -0.05321073       0.65004617
Au       5.79783445       3.83451763       6.04889384       2.02899164       0.37812950       2.25029447
Au       5.72696054       5.88709287       4.23178643       0.36831524       1.57147543      -0.13525225
Au       3.89893181       3.89062759       8.28203015       0.46171740       1.36619924       0.24193495
Au       3.93456910       6.20391002      10.24665316      -1.56190391      -2.22322739       0.53879760
Au       5.80076905       4.12292419      10.43130910       0.39130215      -2.10713350      -2.04134139
Au       6.02430775       6.03970010       8.30284852      -0.82924054      -1.10952572      -0.38772858
Au       4.09438088       8.12407768       0.03872267      -1.89397022      -0.28805372       1.03946345
Au       4.07294941      10.30262026       2.03642210      -1.15119668       0.15129260       0.20438673
Au       5.74804787       8.24045358       2.11813790       0.78964853      -1.44571958       0.39193530
Au       5.98421136       9.99726689       0.06722443       0.37606334       1.40001438       0.57434452
Au       3.97519742       8.29497750       4.21357238      -0.01768649      -1.09861847      -0.44417012
Au       3.64907431      10.03062995       6.15844127       1.38439544       1.37660186       0.82639229
Au       6.03023268       8.02637735       6.43613265      -1.16037782       0.25285581      -1.09824441
Au       6.00255282      10.10157147       4.06831528      -1.03688017       0.57209685       1.67421158
Au       4.01849288       7.87840017       8.41450503      -1.36286029       1.42935098      -2.18124095
Au       3.75026253      10.02853749      10.29604143      -0.23434000       0.26296681      -0.35073855
Au       5.75194951       8.10547583      10.34551309       2.25455977       0.05701549      -0.63962544
Au       5.71454286      10.10336014       8.27971159       0.47500943      -0.12857981      -0.25443771
Au       8.18162686       0.03655580       0.10570046      -1.64974800      -1.16350827      -1.34517160
Au       8.15517260       1.86329773       1.95461824      -1.51118957       1.71859154       0.43390338
Au       9.81230233      -0.03156079       2.05652902       2.37429237      -1.33903111       0.86202396
Au      10.13994611       1.88108674      -0.09109006      -1.11970739      -0.59864572       2.40378039
Au       7.97788965      -0.11146617       4.09872595       0.39649691      -0.19432933       0.61062748
Au       8.05730113       1.94196095       6.12468612      -0.73731575      -0.32684537       0.16521614
Au      10.03390430      -0.26598274       6.29791213      -0.32069717      -0.54533279      -0.82023480
Au       9.86094002       1.93534787       4.12983762       0.79713394      -0.27757172       0.45414749
Au       7.75996554      -0.12629197       8.13070422       0.53126979      -0.81761153      -0.23022709
Au       7.92885471       1.87142989      10.05478877      -1.24926294      -0.50388469       0.66493987
Au       9.78135660      -0.14254891      10.20891571       0.72613721      -0.61753309      -0.42318029
Au       9.88854824       1.64077365       8.14428038       0.19251875       1.15095163       0.24493960
Au       8.03940705       4.13057370       0.15034068      -1.89299854      -1.77236987       0.86099259
Au       7.94353591       5.99754669       2.25279833      -1.20624804      -0.50336690      -0.23915225
Au      10.07074619       3.81950848       2.25069909       0.03335328       0.65712720      -0.35579867
Au       9.85163083       5.80648347      -0.00371179       1.12496070       1.92074539       1.38113058
Au       7.74329921       3.85895866       4.03096747       1.66007110       0.11516121       0.88780238
Au       7.71442135       5.83956644       6.05604550       0.44497603       0.17595390       0.64343045
Au       9.84197632       4.03147217       6.24598026      -0.39603796      -0.90828666       0.22780333
Au       9.73313749       5.91484663       4.19771043       0.68871119      -0.31586189      -0.19291134
Au       7.74670912       3.86720476       8.17416046       0.25224569       0.15714017       0.03447888
Au       7.83092501       6.03055920      10.29166126       0.02090823      -0.15902050      -0.26509626
Au       9.68719922       3.69554802      10.43901290       0.41642345       1.44964850      -2.75436546
Au       9.93811841       5.99885979       8.45041736      -0.56032290      -0.68188602      -1.02805960
Au       7.94647532       7.90144166       0.26846749      -0.45859584       0.56505003      -0.63768394
Au       7.75043901      10.17207247       2.20366470       1.36000194      -0.19553758      -0.71871590
Au       9.72103636       7.84962070       2.18413784       1.21691562       1.26871822       0.35709573
Au       9.95015847       9.95829931       0.07109196      -0.33340102       0.45223821       0.87938722
Au       7.83342708       8.16473540       4.35567611      -0.13159780      -0.59193747      -1.10049878
Au       7.91224809      10.04684816       6.27951697       0.15795316       0.51480932       0.33289715
Au       9.75318552       7.85337664       6.09278090       0.55300205       0.43989099       0.91171774
Au      10.00946317      10.05952504       4.08896950      -0.21096018       0.02518489       0.37335481
Au       7.84766621       7.91750345       8.27237926       1.17950236       0.94706473       0.46626836
Au       7.86061840      10.17171390      10.44229495      -0.28244382      -0.64634592      -0.69148035
Au       9.97438937       7.86352887      10.41035894      -1.15922143       0.62558147      -0.94192323
Au       9.97439760       9.95556194       8.46689325      -0.86137665       0.32539629      -0.17920384
108
Lattice="11.970392439572127 -0.049013481056331534 0.14318547517242983 0.03221447673988111 12.072704497780688 0.15687233227619352 -0.1938923760156916 0.15317003117669675 12.272236714657474" Properties=species:S:1:pos:R:3:REF_forces:R:3 REF_energy=14.9815001793597 pbc="T T T"
Au      -0.14144950      -0.17483827       0.18049415       4.96727823       5.13272357      -3.14050419
Au      -0.20013304       2.22715040       2.03976979       1.51733488      -1.94093440       0.78708188
Au       1.90415174       0.07737703       2.06765573       0.45181732       0.24350902       0.19729377
Au       1.95645361       2.06001320      -0.00996375       0.02021460      -0.82914103       0.57758401
Au      -0.25088931       0.18091243       4.09660131       1.50415655      -0.43461897      -0.11569948
Au      -0.01690331       2.11877199       6.20794068      -0.97893720       0.63941091      -0.04466990
Au       1.78569511       0.24228035       6.13907169       0.57915422      -1.65099528      -0.57237336
Au       2.10384241       2.17777239       4.22878794      -0.65194310      -1.19799203       0.09288698
Au      -0.14521444      -0.08882919       8.10757600      -0.05800022       0.72024637       0.48201102
Au      -0.09026486       2.07202044      10.09266027      -0.33368830      -0.55759422       0.45983550
Au       1.84059195      -0.01873540      10.17321638       0.11075559       1.22699314       0.42285662
Au       1.87193811       1.95257379       8.07651219      -0.58387919       0.82835695       2.13705700
Au      -0.10522631       4.06095710       0.22556993       1.23624155       0.55747960      -1.68686592
Au      -0.12059350       6.14981007       1.99956035       0.56860352      -0.09663283       0.58593199
Au       2.02769416       3.89668201       2.25968024      -1.62776555       1.31665475      -1.25907500
Au       2.10817624       6.10047391      -0.09183488      -1.09113077      -0.67233512       1.03835608
Au       0.08067131       3.93563172       4.15643196      -0.89316398       0.81283208       0.03867837
Au       0.02982571       6.16560547       6.34216442      -0.71041265      -1.21295688      -0.38205228
Au       1.99239823       4.19508138       6.13178091      -0.79501940      -0.18593564       0.64179816
Au       1.89818418       6.07982118       4.22751028      -0.13995965       0.60109008      -0.69599474
Au      -0.04185502       4.14857808       8.31796481      -0.02475688      -0.44417347      -0.48897088
Au      -0.28516962       6.12185259      10.47062227       0.56547620       0.20811845      -0.19540881
Au       1.73100942       4.00117196      10.40094209       0.51149376       0.93433454      -0.42140094
Au       1.75968272       6.11334050       8.36852424       1.38046232      -0.94089150       0.42707661
Au       0.01541635       8.20907406       0.25584094      -0.42158323      -1.07081345      -0.75668424
Au      -0.00428977      10.27045517       2.09280928       0.82422466      -3.11724653       3.50090786
Au       1.87778310       8.13392706       2.20293142       0.52313862      -0.10684850       0.38828284
Au       1.92235357      10.00087075       0.04780199       1.24956802       0.34092118       0.57508810
Au      -0.14836362       8.04655471       4.36501500       0.88418700       0.60966459      -1.88588538
Au       0.06385836      10.14213937       6.25795311      -0.92280404       0.19844071       0.11210369
Au       1.73218695       8.10180423       6.31407490       1.80790163       0.35471226       0.06885164
Au       2.06871609      10.04586672       4.41309227      -0.53981178      -0.20865757      -0.97083231
Au       0.02829185       7.98347640       8.44725192      -1.61772282       1.54631727      -0.10727890
Au      -0.24559987      10.35755599      10.40986280       3.18586159      -3.64631774      -1.67989532
Au       1.81973284       8.14252289      10.38042519       0.21163244       0.83984320      -0.04536898
Au       2.03019837      10.28930053       8.30204356      -0.33322842      -0.78080331       0.14668176
Au       4.12974171      -0.02755618       0.01474886      -2.39019086       0.02036141       1.34302570
Au       3.86048587       2.15247993       2.16727208       1.34420407      -1.50972927      -0.26164835
Au       5.92532795       0.06597226       2.26137032      -0.39707267       0.35007524      -1.11661516
Au       5.86969483       1.94458750       0.04985828       1.23295974       0.71268478       1.41050211
Au       3.75590877      -0.03165385       4.24319126       0.31474155       0.92617885      -0.83727533
Au       3.79988976       2.19673062       6.39209366       1.45368619      -1.24548116      -2.36468184
Au       5.77783821       0.01594479       6.06024471       0.57265528       0.67483514       0.17595556
Au       6.00279214       2.03154734       4.22396821      -1.00297402       0.91829442      -0.10360362
Au       3.97234657       0.19624717       8.23560989      -0.17026026      -0.45872200       0.24287160
Au       3.98685124       2.29619379      10.35302313      -3.20430569      -1.63531877      -0.50957845
Au       5.63898180       0.21352124      10.45522355       2.00547286      -0.73111631      -1.85592877
Au       5.88395917       2.16986718       8.22164697      -0.08212994      -0.43148128       0.22515500
Au       4.00171073       4.12713956       0.25040373      -0.58046828      -0.91293410      -2.08164310
Au       3.82000916       5.85241713       2.12097420       0.07389356       2.24231493       0.54325974
Au       5.91998603       4.13458858       1.97269519       0.93774525      -1.23268699       1.94623264
Au       6.10690476       6.02637609       0.22915906      -0.50999176       0.63861175      -0.66190234
Au       3.93994162       4.17524364       4.16559260       0.88757020      -0.49907926       0.70085774
Au       3.84762821       6.15120706       6.24006100       0.28439611       0.39188587       0.37460593
Au       5.82035877       4.24173167       6.34931131       0.80182424      -0.37323288      -0.94026282
Au       5.81542364       6.15894457       4.14173320       1.82357376      -1.73365262       0.68902274
Au       3.84411671       3.99697918       8.12682955      -0.62878066       1.78177279       1.79783676
Au       3.80428653       6.16968867      10.27387727       0.29944857      -0.74333327       0.21130534
Au       5.66435860       4.02722471      10.24901040       2.08458918       2.28916675       0.52012069
Au       5.90834276       6.02681833       8.34503040      -0.25859001       0.75420571       0.28404204
Au       3.99974298       7.93867495       0.24879692       0.12521535       0.70372176       0.10335294