108
Lattice="12.170686124778463 0.18465762672618255 -0.009480077964192571 -0.17347628555262104 11.837421856992057 -0.1827112314577667 0.2961683565518621 -0.03750965324668989 11.814376376428278" Properties=species:S:1:pos:R:3:REF_forces:R:3 REF_energy=79.21058201492666 pbc="T T T"
Au      -0.36487252       0.09048690      -0.35279801       3.09123466      -2.07339216       1.16689546
Au      -0.26069807       2.03897945       2.21544332       4.17672764      -1.45660944      -9.97246118
Au       2.22817040      -0.25498048       2.09747931      -1.13095612       2.83009229      -3.61443305
Au       2.24910772       1.80453032       0.04740716      -1.74709628      -1.11870726      -2.25872243
Au       0.32729778       0.14399584       3.56286367      -2.80547279      -3.47878815       3.94707113
Au      -0.03296562       1.89274593       5.84078477       0.98816883      -2.43463889      -1.37016029
Au       2.11921560      -0.26181278       5.75723637      -1.15965098       0.39230208       1.47135935
Au       1.95460724       2.02486493       3.80197474       1.36343594       0.92822668       0.73760388
Au       0.15625801      -0.43283591       8.01267469       4.80584529       5.98208087       0.21191255
Au       0.21647226       2.03741251       9.65777950      -0.30378811      -0.96807092      -0.22397195
Au       2.25926474       0.02137659       9.77247209      -0.54035042       1.00341453       1.28224868
Au       2.18995024       2.13984103       7.82925737      -0.63610605      -1.35102043      -0.52248348
Au       0.10246797       4.07976101      -0.38216652      -5.82992853      -1.54061337       6.12842890
Au       0.17242237       5.86555646       2.01679086      -1.46066919      -1.62458590      -0.13778666
Au       2.05316420       3.80495046       1.28070243      -1.59998700       0.65334296       5.49041597
Au       2.45661593       5.78860626      -0.17016010      -7.46334020       4.30734632       5.33058523
Au      -0.22648423       3.71599803       3.82890443       5.28334035       6.91248168       2.95566296
Au      -0.12884620       5.77585719       5.76658018       1.86751399       1.84435389      -1.92970071
Au       2.28253382       4.01542819       5.56497097      -2.06308086      -0.00228994       1.96094175
Au       2.26202123       5.77975846       3.49783253      -7.21968844       1.28672467       5.49217306
Au       0.16321190       3.80281075       7.28032207       0.39545151       1.48502545       3.05693782
Au       0.06054524       6.07747184       9.76031172       0.14328086      -0.11530246      -2.21068823
Au       1.94099249       4.03588796       9.89229030       6.70692596      -0.98124898      -7.34670003
Au       2.16469273       6.24701577       8.04106561      -1.67117946      -2.64671574      -2.52303134
Au       0.02523196       7.65752670      -0.04317326      -3.27406526      -1.09102397      -2.47503797
Au      -0.09943101       9.77285171       1.75620082      -2.81144253       4.98746266      -2.18970715
Au       1.41139869       7.94869730       1.80087244       8.63773397      -3.40885810      -2.36934071
Au       1.53115467       9.71888701      -0.64493412       7.75796197       7.73625327      13.06348748
Au       0.20340677       8.29284671       3.83137290      -9.19905852      -4.75972519       0.11269775
Au       0.00754883       9.57449918       5.91346437       0.66244476       2.89814592      -1.07314890
Au       1.83461302       7.74840023       5.36230491       4.20269172      -1.44995775       4.29369311
Au       1.98326549       9.68213078       3.34710035       3.96387271       2.35008743       5.18606733
Au      -0.20547876       8.22049651       7.92402862       0.28927642      -8.31928665      -5.74565515
Au       0.26049369       9.40862077       9.73125668      -9.05278525       5.92552910      -0.02611701
Au       2.26789980       8.05872465       9.68957228       3.03356308      -7.12469154      -2.83409688
Au       2.09735511       9.91482059       7.93738625       1.80452997      -0.81658920      -2.99975943
Au       3.93254396       0.09071476       0.39463977       3.44059384      -1.70246518      -2.58564135
Au       4.10885592       2.01139344       2.31036872      -1.35278056       0.06748883      -1.56147336
Au       6.13485530       0.30836228       2.24565832      -3.00789135      -6.60549480      -5.04007329
Au       5.96915412       2.14520512      -0.05482513      -2.01984775      -1.21304946      -1.82018669
Au       3.92768606      -0.17051939       4.06307746       1.24867013       3.73310841       2.34359279
Au       4.29998450       2.12450661       5.84764559      -2.97394818      -0.84886919      -3.26369644
Au       6.02423967       0.48050183       5.73206560       1.84460836      -6.62061262       0.85181437
Au       6.23370234       1.90295443       3.80002962       1.74901558       6.57117263       4.41808737
Au       4.14143645       0.03508989       7.96378592      -0.17226290      -3.71472250      -4.97487085
Au       4.42315384       1.69801786       9.51107393      -1.35535735       5.57950872       4.66458577
Au       6.22985866       0.03849793       9.67206307       2.07072456       0.79669413       0.56753678
Au       6.30463530       2.00484463       7.66429632       0.23671398       0.81176927       2.73132716
Au       4.16399107       4.08931571      -0.01160258       3.18637148      -2.86593059      -0.38912350
Au       3.94170539       5.82583630       2.08940151       7.09263870       2.73268864      -6.41237869
Au       6.07902610       3.77808502       2.04975354       0.76419417       2.35567690      -0.59787976
Au       6.40929938       5.84928239      -0.09299148      -5.09604432       0.30495145       1.72071698
Au       4.06918381       4.12828186       3.86217381       3.18707132      -2.42294008       1.23716759
Au       4.00014245       6.09238263       5.89159440      -0.29254606      -1.64085882      -0.94655321
Au       6.43913323       4.28073858       5.79802110      -5.12823430      -3.34376016      -1.29710593
Au       6.26795804       6.15927107       4.07046214      -1.64384018      -3.95839132      -3.13525229
Au       4.22003099       3.66718092       7.58875227       0.28173301       4.77750734       3.31580176
Au       4.10914324       5.82740811       9.89279843       5.30805102      -0.55264412      -6.90433398
Au       6.35008981       4.05577326       9.81191794      -3.90408734      -0.54607202      -3.79230291
Au       6.07229169       6.34081431       7.82952247       8.15120352      -8.00029211       0.88316134
Au       3.96635213       7.93935099      -0.39046706       0.44382532      -0.09771519       3.98346433
Au       4.19987310      10.05231038       2.23074034       1.62064077      -3.02256075      -5.17574785
Au       6.16624640       8.12655283       1.73748188      -3.89011246      -3.53033839       0.89396800
Au       6.00582771      10.07691093      -0.54405432      -4.71356223       2.15502308       7.89440715
Au       4.40432756       8.04082104       4.05613751      -4.58545792      -5.50938034      -5.54418894
Au       4.28582144       9.71346263       5.60202128      -1.97076101       4.75579070       4.95595747
Au       6.08851011       7.90350516       5.84340618       1.10768224       0.96335288       4.06879286
Au       6.23708365       9.60860464       3.72098320       1.43230379       4.97581800       1.55239529
Au       4.32827762       7.60762389       7.87248316      -7.33502242       8.21865693       0.78989859
Au       4.37638763       9.69837665       9.75063800      -2.60933163       2.91353221      -2.50046125
Au       6.35729309       8.04941917       9.86938367       0.11874420      -3.85025155      -2.62665825
Au       6.21487686       9.99272742       7.77474160       0.22206790      -0.59306571      -1.42590496
Au       8.31948607       0.01165210       0.14614004      -0.33058030      -2.64043136      -6.50765447
Au       7.87851620       1.81532814       1.42152716       2.41694501       6.97688641       4.88352728
Au      10.08139070      -0.03641462       1.92226589       3.97281697      -0.19666734      -0.03242875
Au      10.13936902       1.97908034       0.12078692      -0.28067920       3.44861249      -0.42941765
Au       8.31243207      -0.12310783       3.52043240      -0.55006407       1.39325083       5.04772464
Au       8.21874004       1.87462937       6.07427826       1.34829847       1.05083085      -3.16412767
Au      10.40200142       0.02442846       5.97433523       0.84965781       1.04496549      -3.38721946
Au      10.24456889       2.32033719       3.75285466      -5.73838159      -7.21973890       3.08886482
Au       8.84308862       0.20989813       7.90449473      -9.19885372      -3.37194500      -2.02768485
Au       8.43961208       1.97736879       9.77923121      -2.76802769       1.28407100       0.04022148
Au      10.19724622       0.32239346       9.79767129       4.09738448      -2.30768003       3.59606900
Au      10.29828074       2.04763458       7.78960901       2.98339542       3.75573466      -1.04750326
Au       7.90946758       4.03079208      -0.58665776       5.66734307      -1.74443134       4.30355831
Au       8.32135741       5.98125360       1.75332475      -1.57888211       0.49389957       1.28944989
Au      10.34074142       4.45393217       1.63399708      -0.36716837      -7.54496922       5.05921715
Au      10.31238192       5.82392784      -0.07482416      -2.48273475       6.47581836      -6.27061000
Au       8.44833779       3.85793356       3.69756892      -5.63797229       1.41853994      -2.55382468
Au       8.43199668       5.48633056       6.09491185      -6.95878351      17.35317929      -5.73160903
Au       9.96748007       4.14715137       5.56830863      10.74912163      -9.14185147       1.10116659
Au      10.13565239       5.93169841       3.74173620       0.21436405       2.96134079      -0.10891840
Au       8.07619791       4.10134208       7.71318535      -0.35370470      -6.59583158       9.41375191
Au       8.39214205       6.06183573       9.73460316       0.99123769       0.87269501      -1.57009555
Au      10.42578093       4.08395375       9.38275385      -0.05179527       0.13778274       1.53004174
Au      10.32643908       5.94211726       7.57649168       1.61783704       1.46904128       3.16862176
Au       7.75443770       7.84325152      -0.01266153       5.02990933       2.09294062      -1.87124325
Au       7.61537924      10.09531447       1.53366601       1.79120841      -1.95913162       0.79032243
Au      10.07128234       8.40654121       1.90979366      -1.17453403      -3.45273955       2.28742501
Au       9.88836889       9.67406302      -0.10730954       0.40303558       4.61784736       1.18470019
Au       7.93369305       7.85487345       4.23874389       4.53808805      -1.71657504      -4.60421240
Au       8.09730457       9.77369069       5.68913736      -0.53215311       4.11012090       2.76080395
Au       9.99139087       7.96519638       5.66392556       3.08957290      -1.33451145       0.94311549
Au      10.14221908       9.92243649       4.06695315       0.00405847       1.38941580      -2.00627434
Au       8.40914847       7.81849537       7.63304144      -1.10671563       1.11918087       1.40747545
Au       8.03519608       9.97537674       9.84450127       6.44417732       0.45951819      -5.10892417
Au      10.22856521       8.28355812       9.85532689      -1.90880541      -4.40175259      -3.19723936
Au      10.33221241      10.26911289       7.76088892      -5.84973558      -6.13149495       0.77890829
108
Lattice="12.175297042875929 0.13924149236721678 0.21648429032338976 -0.06201906171788623 11.959610616094139 0.015218895784503276 0.09412991722081439 -0.29214506119439004 11.990333359807854" Properties=species:S:1:pos:R:3:REF_forces:R:3 REF_energy=57.787123801179156 pbc="T T T"
Au      -0.14383738      -0.04156444      -0.15220678       1.64694832      -1.27881233       1.53717311
Au       0.14675995       1.62355095       1.68498164      -1.94085970       2.19011218       4.74809580
Au       1.97812673      -0.06061449       1.74354083      -1.77191951      -1.32035565       4.74150364
Au       1.89752989       1.93626659      -0.04004239       4.61739127       0.20995850      -0.04109646
Au       0.06175294      -0.22969746       4.29234505       0.54323503       1.46588697      -3.19653893
Au       0.13436938       1.68577320       6.01660546      -2.61390143       3.67485723      -0.76912483
Au       2.10108420       0.12007868       5.91117091       0.39549739      -4.87535371       3.18599886
Au       2.20372404       1.92746456       4.33370829      -3.17481440       3.29322736      -4.09269194
Au       0.32093157      -0.15536751       7.94109905      -0.13289269      -0.88659569       1.20571867
Au       0.16942627       1.71372421      10.33054237      -2.07380597      -0.55377452      -5.25393748
Au       2.12335179      -0.30137583       9.93610216       0.58127538       1.21677052       0.98627097
Au       1.83902582       1.93302380       7.86817053       1.98243223      -1.10856192       2.96699192
Au       0.19895663       3.72794986       0.03052126      -2.43102285       4.58863970       1.73488376
Au       0.21472354       5.50066505       2.40965145      -4.81839285      10.71803656     -11.81843997
Au       1.93917443       3.98927202       2.15383242       4.75853638      -4.21052041      -1.12569738
Au       2.14343245       6.05778901       0.24316708       0.42186456      -2.11940096       0.25586622
Au       0.11451776       4.24133141       4.10631626      -2.09165896     -11.61653876       8.27528098
Au       0.40898253       6.01394855       5.64162610      -2.28151801      -1.76337325       8.59198771
Au       2.57782865       3.74880244       6.33542916      -6.41109660       1.38587512      -6.25197665
Au       2.03494197       6.11784859       3.90277217       5.49417800       0.54875305      -0.35365491
Au       0.16722917       3.74113539       8.31442916      -1.75445782      -0.82349526      -1.62051968
Au       0.13516570       5.92353962       9.56673854       2.46117306      -1.64681709       6.77035230
Au       2.06987021       3.84839990      10.07782113      -1.11441199       1.98409751       0.43405304
Au       2.25319136       5.73506800       8.04700316      -0.37820523       1.43167616       0.35022095
Au       0.19489931       7.51733594       0.12801603      -1.96362694       1.77990399       0.22981862
Au      -0.10277120       9.73518771       2.07838015       1.08505224       0.46320131      -1.30516801
Au       2.24904871       8.15541858       2.01759293      -3.44405415      -1.95805322      -1.62710678
Au       2.15268182      10.16316268       0.03128887      -0.84791383      -2.18864426      -1.47883810
Au      -0.14858551       7.74864525       4.17449439       1.94517013       1.78284609      -5.48830615
Au      -0.01304696       9.61103321       5.67087653       2.62432557       1.06882602       5.92502579
Au       2.20130138       7.74085244       6.10747088      -0.22755962       1.03534955       1.03492122
Au       2.25685164       9.63038251       4.03651344      -7.52205466       6.75684934       2.03824160
Au      -0.01273159       7.85425895       8.25153350      -0.09312646       3.22570358      -2.95422349
Au      -0.23913132       9.83684755      10.21093163       5.86927625      -4.75433940      -2.16654287
Au       2.02903632       7.72533704      10.12186099      -0.09995511       1.36729945      -0.37126598
Au       2.10925032       9.91125624       8.15457481      -0.66310072      -1.42188064      -1.35705456
Au       3.86203789       0.24446713       0.30551806       3.31887139      -3.56325550      -6.68347509
Au       4.10100074       1.69216036       2.05013766       0.03651392       4.62309874       4.31955622
Au       6.14221802      -0.20799014       2.03460343      -0.08897387       1.00521048       0.52446949
Au       5.79543813       2.18434763       0.14396969       3.03613745      -2.00185289      -0.50815907
Au       3.76065235       0.01932512       4.05763743       3.08545220      -2.77246547      -1.69460307
Au       4.19844365       1.81530325       5.90956871       2.64389356       0.71160749       0.80718267
Au       5.98054455      -0.18408583       6.10717384       0.75214893      -0.39047315      -0.51563847
Au       6.13828034       1.92736352       4.02289250      -0.05106372      -0.58718715       0.64847727
Au       4.05090497       0.35319541       7.91157197      -0.29887278      -1.86175522       2.10640054
Au       4.01494303       2.45499887      10.15084504       1.48493463      -4.15110436      -0.18183116
Au       5.89009399      -0.00529603       9.91817883       0.36915828      -0.24992685       0.53282855
Au       6.32187759       1.82593335       8.01637503      -1.91650634       0.05460834       2.59292947
Au       4.35959232       4.14623097       0.27183228      -2.06074510       1.56871067       0.92270433
Au       4.13009507       5.88863939       2.20043066       0.14176782       0.09071305       0.47017141
Au       6.32450690       4.03441438       2.47203252      -1.27960398       0.46876547      -1.73042254
Au       6.22673643       6.09182256       0.16614890      -1.75973887      -0.56546067      -1.52782953
Au       4.09658339       3.68532126       4.05599774       0.25779580       1.82111175      -0.85263250
Au       4.11872507       5.79692958       6.14247296       0.01794764       1.91034517      -0.86390367
Au       6.11830196       4.06482347       6.24110427      -1.51464295      -3.47832900       1.09369056
Au       6.12144629       5.67860179       4.47077393      -1.46017808       4.76231183      -2.84412344
Au       4.07213441       3.82201004       8.00228580       5.14255531      -0.01998791       5.07869739
Au       4.00818208       6.09157653      10.34892421       1.29414377      -2.76958316      -2.49321196
Au       6.23429578       3.79120337      10.22908317       1.28800291       0.45866991      -0.76506794
Au       6.13415167       5.81661810       8.17702835      -1.47951847       0.45456601       0.24109529
Au       3.92885476       8.06994043       0.12315155       1.63440774       1.47976271      -0.05332378
Au       4.14302532       9.84023778       2.22526001       0.59954301       4.12107039      -3.41668091
Au       5.88072850       7.87949032       2.01099196       0.80608209       0.91857977       0.48476086
Au       5.82155562      10.23909538      -0.07288594       0.29615636      -0.73177258      -0.44486823
Au       3.90867968       8.17318743       3.96496861       7.19974505      -8.19840556       3.02538411
Au       4.01618622       9.66427768       6.24660076      -1.10848850       3.84960216      -3.33298853
Au       6.26271469       8.04441114       6.22106072      -0.87029072      -2.75845855      -5.07127146
Au       6.08206043       9.83370591       3.95470848       0.05359556       0.86937456       1.17429927
Au       4.33782069       7.97768506       7.93720209      -9.29560667     -11.55563641       1.78512118
Au       4.09315775       9.70927877       9.85114617      -0.94720525       1.11271681       2.84672440
Au       6.16027435       7.71614174       9.91982521      -0.75430782       1.22850928       2.41180656
Au       5.80289274       9.52843885       8.04019491       9.83153349      12.05111444       2.58291472
Au       8.09984570      -0.08223250       0.27447075      -0.98501404       0.45936322      -1.80175790
Au       8.10910720       2.15278232       2.10866608       0.17703993      -1.40639530       0.57256688
Au      10.00434566       0.09016725       1.92625757       0.89067893      -1.95526660       3.66867038
Au      10.24363206       1.92187317       0.36658656      -2.08977995       3.39572033      -2.30169518
Au       8.08055019       0.20795268       3.91657601       0.76086402      -1.04118591       1.04965344
Au       8.01803920       2.01621056       6.37612544       2.37286248      -1.46572033      -3.05027173
Au      10.52646761      -0.02176472       6.54311938      -2.01326654      -1.71307509      -3.37692072
Au      10.10918809       2.23167485       3.99128165       0.50687559      -1.08290931       0.43274644
Au       8.26365807      -0.57027432       7.91356023      -2.16776133       1.66464131       0.82135841
Au       8.27830514       1.58015411      10.22419373      -0.47815176       0.32464055       0.06825774
Au      10.40581409      -0.22768368       9.97855745      -3.11257564       8.21928508       5.24879284
Au      10.10366031       1.72137718       8.15625292      -0.27533231       2.82806216       1.63791985
Au       8.11660980       4.01816251       0.48426767       0.42542046       0.76149196      -2.44032659
Au       7.95766272       6.30222876       1.94207335       0.66318392      -2.35705772       3.97929626
Au      10.15565168       4.29050169       2.41013686      -0.84953701      -0.53134404      -0.78893759
Au      10.03101976       6.20685383       0.27224884       4.65297371      -6.17623302       0.61127470
Au       8.01958048       4.10517283       4.51867205       0.66322977      -1.88310950      -3.78078619
Au       8.22726026       6.03983171       6.28152998      -0.48251151      -0.29252344      -1.12615607
Au       9.88027749       4.04854385       5.97729131       4.38758417      -0.59171263       2.23401789
Au      10.02847059       6.43084655       4.13413849      -0.58692493      -5.72153083      -1.38085067
Au       8.01091013       4.11511768       7.95341600       2.06479817      -1.42920526       2.83736967
Au       8.07481293       6.07898919      10.15243029      -3.91111457      -7.64936785      -2.80285704
Au       9.89153004       3.96791515      10.09812783       0.08021400      -1.22615859       0.89030972
Au      10.48579491       5.77983912       8.39181379      -4.31994137       0.36599764      -4.12737746
Au       8.43065826       7.89571276       0.11582619     -16.05440795       6.28637930      16.55106878
Au       8.15859552       9.83900985       2.20945316      -0.23787571       0.55931373      -0.29268906
Au      10.07543909       7.99140396       2.19872608       1.61986851       1.64128756      -0.45963476
Au      10.10865126      10.11515291       0.07332072      -2.07163219      -1.00113400       2.53410446
Au       7.99586095       7.94480220       4.14229505      -1.04273120       0.01240108      -0.65549055
Au       8.02447723       9.97788524       5.78921960       1.05756326       0.82636318       0.10408229
Au      10.00570653       7.88705023       6.01449315       0.56399747       2.77748869       4.12377745
Au      10.45161456       9.98876744       4.22521771      -4.94262576       0.80888513      -1.70297125
Au       8.04162579       7.86798225       7.90497367       2.29040913       1.79566983       3.13842708
Au       8.10966033       9.62831394      10.09346902      -1.07069406       1.69452447       0.09104605
Au       9.67119311       7.62005346      10.47527925      18.62510037       5.60147934     -18.46420745
Au      10.32323115      10.15142125       8.46418582      -0.09143617      -8.06521288      -6.45121406
108
Lattice="12.232768606736247 -0.30945932590537056 0.3043577946471419 0.04484628820634685 12.438209588022772 -0.02187150095356591 -0.3712534997530622 0.5274735082139982 12.19467272864682" Properties=species:S:1:pos:R:3:REF_forces:R:3 REF_energy=51.32698660753723 pbc="T T T"
Au      -0.20004172       0.22915246       0.40717146       4.08311440       0.45406939      -4.39622850
Au      -0.09488884       2.14109870       2.07640945       0.65103106       0.96819384       0.98159175
Au       1.75472506      -0.10179779       2.43955693       3.57062696       9.68462510      -9.97608036
Au       2.01982786       1.85394698      -0.04332733       0.22989408       0.53443992       0.28187418
Au       0.09081357      -0.21935487       4.11582089      -5.87270403       4.56457855       2.67347937
Au       0.31429138       2.74298421       6.20833167      -7.65485973     -12.69995764       3.81026664
Au       2.11645654       0.47352546       6.12289226      -2.49306210      -0.84678848      -2.73580262
Au       2.10747674       2.55499948       3.85921951      -0.31060128      -2.84699683       1.66487579
Au      -0.13217216       0.42394410       8.15041472      -0.51933558      -0.63297236       0.01009828
Au      -0.29897687       2.55893018      10.22169646      -0.25077584      -0.04758027       0.09236989
Au       1.95313991       0.48328764      10.17737825      -1.11893325      -1.13712760       0.65535411
Au       1.63078252       2.27861888       8.22909609       1.35113780       0.83418727       1.69938468
Au      -0.12626538       4.33524528       0.07872053       2.51470106      -2.69384893       0.04172275
Au       0.18925304       6.17925320       1.85529617       0.31661813       0.70369182       1.35817497
Au       2.21907939       4.20839635       2.03537783      -0.85963342       1.63934098      -1.18784319
Au       2.20095001       6.29981809      -0.21136220      -2.17884677      -2.75344416       2.69372354
Au       0.16812662       4.23981298       4.39760402     -22.78476878      -0.69547669     -26.82395733
Au      -0.42991333       6.54632132       6.04927637       5.12889869       2.05802625       2.47333537
Au       1.47306985       4.48987166       5.75598476      28.26597512      13.37143384      21.10546744
Au       1.87913337       6.56420784       3.99867426       0.29711017      -0.38760523      -1.07143055
Au      -0.41330040       4.65779016       8.07258771       2.68456903      -1.15190945       0.28702162
Au      -0.36796671       6.91366455       9.91783578       2.01695027       0.61979759       1.87136324
Au       1.65244416       4.70734397       9.95927360      -2.55083644      -3.27086121       3.20810028
Au       2.16878501       6.47580775       8.34447784      -8.75026452       2.91114123     -13.58715365
Au       0.20438456       8.26168214      -0.11038342      -1.72920210      -0.27215347       0.51371982
Au      -0.03309659      10.59562376       1.81693424      -1.20351936      -2.28288185       0.90830142
Au       1.76616499       8.62531597       1.92161974       1.13360818      -1.48045268       1.22931026
Au       2.14698345      10.27315726       0.00092693       0.60919097       1.66627171      -0.57677658
Au       0.19222430       8.45093039       3.97894468      -1.95750699       0.73464014       0.48909930
Au      -0.20219797      10.52821973       5.94509198      -0.43672039      -0.49469479       1.48014599
Au       1.78317617       8.83694195       6.27577943      -0.05479462      -3.02334028      -2.43551797
Au       1.88337620      10.68575373       3.77995220       4.13065886     -11.20189610       7.30207221
Au       0.05753086       8.90281988       8.56246762      -4.22601030       1.86462509      -5.86322666
Au      -0.06969572      10.89218282      10.40222910      -0.66029153       1.26451374      -0.75999312
Au       1.63415249       8.60104113      10.18552361       4.85428860       1.86385394       2.35832051
Au       2.10244065      10.49407144       7.96986953      -1.83074942       3.81080953       2.65869055
Au       4.12489715       0.04035299      -0.03916352       0.34456476       0.02038987       0.68263356
Au       4.15727192       2.33147394       2.37034514      -0.75524293      -1.16858068      -2.01440264
Au       6.12516727      -0.08493696       2.53174908       1.67785478       1.35907927      -3.69182304
Au       6.12693948       2.10637619       0.54018994       0.12205482      -1.03044382      -1.17876802
Au       4.12089198      -0.12674685       3.91853895      -3.27734836       2.13080546       1.07584459
Au       3.83991128       2.37551840       6.28410089       0.12072136       0.72942200      -0.86985530
Au       6.37217397       0.19601835       6.18402702      -1.30135592      -0.03883400       1.00168934
Au       5.77343910       2.33021725       4.21221231       1.05712137      -1.03121661       1.26823691
Au       3.52885925       0.25294802       8.03208680       3.04074674      -0.17546883       2.33495049
Au       3.69055850       2.41068147      10.07899901       0.88158790       0.57475822       0.65313084
Au       5.70948155       0.13600763      10.17094833       0.90777185       1.59014234      -0.35238231
Au       5.67475225       2.17340136       8.09937578       0.51796663      -0.53766553       1.48328162
Au       4.20985512       4.08307676       0.33310514      -0.77293429      -0.19849050      -1.43931587
Au       4.41547777       6.33932894       2.21287971      -2.14675105      -0.33066571       0.02940115
Au       6.21752494       4.17257021       2.18737372       0.16651555       0.27658139       1.08553485
Au       6.13294229       5.86004114       0.30902706       0.71345641       1.15797835      -1.32317501
Au       3.96252817       4.50864505       4.34208019       0.59339227      -0.92225717      -0.76161716
Au       3.78919561       6.62902665       5.67570482       0.34868490       0.01684291       2.84074635
Au       6.33175147       3.98738790       6.34124720      -7.67166789       8.17575976       1.40217926
Au       6.10053951       6.46494301       4.14039469       0.70683654      -1.45753370       1.46979806
Au       3.41593227       4.32910818       8.18011146       2.64776186      -1.29123083      -1.41698060
Au       3.38079636       6.56458726      10.03757382      11.64334426       1.05486972      10.13675317
Au       5.95177217       4.38168551      10.69933465       0.00017609      -0.20811704      -0.68847132
Au       5.84006938       6.50210239       8.22841066      -0.90071419      -0.78180085      -0.38215230
Au       3.78283342       8.14804402       0.23755429       2.10137946       0.30908789      -0.19875693