108
Lattice="12.232789928978075 -0.22555037730374283 -0.39757840809940714 -0.21128318762132542 11.922970085093443 -0.10326305824045298 0.31087752304743055 -0.08971754112105931 12.444605121202164" Properties=species:S:1:pos:R:3:REF_forces:R:3 REF_energy=60.70863386882315 pbc="T T T"
Au       0.04449042      -0.39390824      -0.24901063       0.17635676       2.26913203       0.75487155
Au       0.36162149       2.05554751       2.40052783      -0.87055349       0.04788863      -3.75158834
Au       1.93870726       0.12070525       2.22545791       1.23680368      -3.06095228       1.53165409
Au       2.38414414       1.56411114       0.27831619      -8.93603048       3.85988743      -6.24172140
Au       0.01689802       0.24048808       4.18397204       1.59135447      -2.62312195       0.90362583
Au       0.17194453       1.82980522       6.46787012      -1.32236333       1.01481611      -1.77405106
Au       2.00544794      -0.08865739       6.20417909       0.67990305       0.08298469      -0.68372692
Au       2.30122717       1.89697237       4.20895445       0.52954064       0.20528682       0.00683364
Au       0.19548696       0.06764482       8.43571820      -2.60932845      -1.05333918      -1.16347414
Au       0.39140399       2.17103690      10.38587181      -0.33044910      -0.63899460       0.63948232
Au       2.05248546       0.03135633       9.96593567       1.72697206      -0.08429441       3.06426408
Au       1.98600016       2.12348428       8.16098595       1.43122344      -0.54864087       0.47840153
Au      -0.07199240       4.36424090      -0.24628303      -1.76148071      -6.24552280       2.90124018
Au      -0.43818647       5.63563021       1.81807081       2.88100666       2.36201828       1.83344868
Au       2.20091953       4.14243633       2.02580793       0.65001321       0.18054027      -0.39207944
Au       1.73719385       5.94128683      -0.50592855       1.37498570       6.61968685       4.08526455
Au       0.17863887       4.03585556       3.73121792      -0.56726793       1.41438487       3.08591511
Au       0.30340647       6.12736750       6.01725003      -9.50870198      -4.58368254       4.78452428
Au       2.23211067       3.97306723       5.83616270       0.24470418      -0.74182608       1.09069758
Au       1.79139001       6.04055237       4.37714843       6.85379998      -1.85396121      -8.81241820
Au       0.19785141       3.96876218       8.37932775      -1.22558033      -1.56359454      -2.73765156
Au       0.10588565       5.53005806      10.23607582      -0.12015547       5.37834631      -1.67835729
Au       2.54763696       4.10592445      10.61175904      -2.77456671      -5.34714569      -7.78445829
Au       1.86267368       5.86884782       8.24629134       2.13237143       0.62697857       0.18511562
Au      -0.37291505       7.70942291       0.15678431       4.02731855       2.83212146       0.36349289
Au       0.01322513      10.03860551       1.80163827      -1.96663414      -0.64105462       2.22073678
Au       1.95517132       7.51455803       1.64295259      -4.72996901      -1.27170588       5.12910206
Au       1.87732969       9.74595450       0.22022019      -0.45527304       0.85333366      -2.96670736
Au      -0.06004184       7.58559220       3.69363355      -0.89901361       1.89373255      -0.01546975
Au       0.15957574       9.62815502       5.88649991      -0.71736884       1.24777208       1.23034353
Au       1.99242740       7.67744469       6.18045912       4.60376131       5.98681842       2.18219618
Au       1.95490885       9.55747131       4.22367877       1.36457042       0.59773515      -2.02803267
Au       0.00708331       7.97750248       7.83071524       1.71542309       1.40918903       4.01295893
Au       0.18411531       9.68732367      10.27994831      -2.16756903       1.59671210      -0.98457640
Au       1.99518395       8.23329897      10.02007301       2.89239259      -2.58552019      -0.08955900
Au       2.40026836      10.17277829       8.08088832      -1.75935680      -3.21053960      -0.32479516
Au       3.92079914      -0.17035502       0.25894513       3.17966775      -5.41524543      -1.74206714
Au       4.18923268       1.93284949       1.55309851       0.84300715       3.00471963      10.68910605
Au       6.44648231      -0.46068375       1.51288954      -4.70472281       0.27898512       3.92094568
Au       5.90106757       1.85501738       0.10023145       3.08582730      -0.89118946      -7.04008736
Au       4.41328552      -0.34698359       3.91333919      -0.67822093      -0.25429744       0.05666392
Au       4.42201375       1.88879341       5.81215947      -0.90972990       0.40842855       0.11589078
Au       6.18867789      -0.05688532       6.40209390      -2.45948966      -4.21636127      -4.51743189
Au       6.31425658       1.45743677       4.09620861      -2.06021417       1.90089366      -2.56588959
Au       4.08554017       0.15473198       8.07098920       1.68966230       1.28185681      -0.64144412
Au       4.06113941       1.81157135      10.02492600       0.76987171       0.49851158       1.18793187
Au       6.16411676      -0.12893037      10.38559208       5.01437922       5.40814855       0.34927518
Au       6.55639628       1.73271069       7.73384671      -1.49044142       5.00552112       6.49018772
Au       3.99434891       3.84616508      -0.40936400       3.80839552      -0.26502574       3.34408557
Au       4.34068389       6.25066726       1.53134094       2.47293449      -7.09348441       5.49572434
Au       6.33437726       3.96316850       1.65003964      -5.70666390       2.56228580       0.93927608
Au       6.11887827       5.55162441      -0.59489553      -0.70564881       1.50938821       0.08257000
Au       4.50558601       3.97832994       3.78383265      -0.69598903      -0.40693001       0.13756060
Au       4.08742098       6.20151336       5.98912495      -0.62256853      -5.45182040       3.78287187
Au       6.52176162       4.11173676       5.86441739      -1.12135470      -0.86642790       1.06956642
Au       6.27118641       5.94720281       4.11475047       0.73029958      -3.10322116      -5.62158768
Au       4.10716393       3.48111741       7.86628765       1.19648796       1.52729697       0.30124353
Au       4.32426260       6.03161712      10.39118551      -0.25862737       0.06106535      -1.21746975
Au       6.37197711       3.45459007       9.75112495      -0.53249177       0.66829611       0.66739107
Au       6.44371846       5.82839931       8.27215236      -6.72692861      -1.96371767      -5.22882221
Au       3.66697195       7.79940180       0.13396725       2.66052529       5.27531292     -10.41695376
Au       3.69061863       9.49489354       1.97829608       1.29873898       2.14941467       2.50332267
Au       6.10298150       8.18254302       2.13164435      -0.73528530      -9.33235948      -9.85430722
Au       6.13986995       9.43835901      -0.30053218      -0.81906088       0.92422918      -0.54573569
Au       4.35724857       7.79047829       4.31655011      -3.12757033       1.14596012      -6.54080237
Au       4.17895647       9.50333188       6.01114154      -0.06486188       3.13770992       0.90854300
Au       6.28747198       7.44330794       5.83039094       2.84380821       4.76208398       5.82625351
Au       6.21761633       9.51878446       3.74203187       0.64037502       9.48000194      10.45038508
Au       4.29592112       8.03408429       8.10984467      -1.80724538      -1.00299752      -0.53204912
Au       4.52607794      10.12612501      10.13067523      -5.73159115      -4.55684569      -0.18545195
Au       5.96282364       7.97945217       9.89738469       2.42307927      -0.44497368       1.82726712
Au       6.42183437       9.83293699       7.92683607      -5.87662910      -2.78841579       5.41660057
Au       8.20029997      -0.12411990       0.07473400       3.38119821      -0.36730738      -4.10490783
Au       7.94328278       2.16436860       1.41691090       1.06734185      -5.02200711       4.99600978
Au      10.46116715       0.13282293       1.65802727      -0.15809482      -0.98329580       0.07973776
Au       9.81723149       2.04293706      -0.07423397       3.82898160      -0.63867109      -2.89934441
Au       8.12782504      -0.16539814       4.13072469       1.28721294      -1.51712769      -1.87206019
Au       8.02905256       1.89511660       5.88454431       4.30115532       1.11170262      -1.50301322
Au      10.08896297       0.03233475       5.75073189       0.97718670       0.07863526       1.76513793
Au      10.60994448       1.82444428       3.81128384      -2.65436749       1.94581512       0.31475271
Au       8.30108972      -0.28964190       8.28572416       2.07409013       3.10834783       1.38022749
Au       8.52104470       1.98098225      10.02510881      -0.80670612      -1.28922775       0.32146704
Au      10.26220599      -0.59323109      10.26051372       1.78358068       2.92583939      -0.35107139
Au      10.29825057       1.74677021       7.92335215       0.13672933      -0.32177766      -0.19315021
Au       8.02967584       3.97107611      -0.21248600       1.10714914       0.87428927      -5.52441037
Au       8.47900765       5.50728833       1.81623250     -15.56974338      15.15700125      -0.77456951
Au       9.82596893       4.01774653       1.80141356      14.20925557     -15.95320688      -0.03355512
Au      10.03105307       6.01531492      -0.41894478      -3.49711115      -3.92607714      -0.84635803
Au       7.97062027       3.77205121       3.50539385      -0.41660964      -2.16937763       5.55604206
Au       8.52327934       5.95102605       6.11387139      -3.91531773      -3.36817734      -0.22043365
Au      10.57859728       3.97476401       5.80204827       0.43409967      -1.90863794       1.13870147
Au       9.88688498       5.64231237       4.11252261       2.39752907      -0.12653232      -2.63954194
Au       8.65128963       3.97844144       7.76047459      -0.51897228      -1.15003913       1.00244814
Au       8.06417618       6.04017072       9.76735320       5.46016278      -1.74930593       7.68295594
Au      10.44993846       3.61420144       9.84637671      -1.03864331       0.18155377       0.80249243
Au      10.43750732       6.08136996       8.13556354       0.19765879      -2.62192121       0.07757384
Au       8.00326790       7.75084901      -0.00776296      -0.00793642      -0.73455754      -0.63701576
Au       8.09342256       9.76779978       1.86926473       3.09572176       0.38837882      -0.26624738
Au       9.89467212       7.39672354       1.95803263       3.31139205       4.04395625      -1.54936880
Au      10.10373165       9.47975144      -0.57892955      -0.82851620       2.04605872       3.31948337
Au       8.50991048       7.87591286       3.92319711      -2.00202555       1.14020938       1.46544184
Au       7.79229366      10.11577610       6.18542405       5.11000421      -2.06459859      -7.15252613
Au      10.24680086       7.56334044       5.98058936       1.67694051       3.26317449      -2.64631605
Au      10.38824764       9.94684104       4.11247172      -1.66189938      -0.92294235      -1.62202543
Au       8.33107383       7.59544846       7.96085119      -1.14750248       3.77237207      -0.95212943
Au       8.49124230       9.52295094       9.80452605      -2.59934543      -1.62738887       1.87910784
Au      10.49206842       7.64146540      10.22360320      -0.70599502      -0.62559980      -3.69431645
Au       9.94012084       9.55659523       7.69351545       2.47883327       1.68817693      -0.26728353
108
Lattice="11.871650040119222 -0.36118624931522614 0.17628629377190522 -0.25048613527582836 12.408588247624678 0.37185452334785446 -0.28162836766706073 -0.17333536308280165 12.187706781185476" Properties=species:S:1:pos:R:3:REF_forces:R:3 REF_energy=79.15672711674773 pbc="T T T"
Au      -0.05556062      -0.05924669      -0.22631553      -1.86623899       1.01494921      -0.96878057
Au       0.22268627       2.18448026       1.81635485      -5.14397760       1.85430655       0.14125959
Au       1.53522151       0.12105942       1.67335161       3.82491451      -3.42007396       3.21647037
Au       2.24119393       2.03144150       0.43542536       0.86053226       2.30253528      -5.51260623
Au       0.12360910       0.25769643       4.25762310      -4.82060583      -5.52485693      -0.55090891
Au      -0.12126831       1.71987858       6.33794636      -0.10832508       1.88173533      -0.14235081
Au       1.91164014      -0.18313872       6.17010747       0.00692057      -0.66302771       0.01382886
Au       1.62878964       1.87366366       3.85328384       5.33215058       4.45308578       1.19641846
Au      -0.25993654      -0.14201094       8.41135552      -1.82531641       0.02599321      -3.03182531
Au      -0.25469413       2.25074674      10.59273235       9.00448622      -2.97895048      -8.57844278
Au       1.38310813      -0.12692908      10.02519031       5.70649504       2.57627531       2.40049797
Au       2.03016890       1.88760580       7.87896282      -9.81235660      -3.34559106       9.35777677
Au      -0.31149007       4.27530662      -0.21235642       1.88219261      -1.40138892       8.03506145
Au      -0.26891841       6.47270239       1.84057285      -5.47520324      -0.92934290       3.83133528
Au       2.00513520       4.18749649       2.04120658      -1.46765133      -6.05400916       5.72399164
Au       1.54353861       5.82602223       0.59069075       4.11553448       3.79651455      -8.50293916
Au      -0.03583847       3.97921060       4.45335679      -0.06650284      -1.15750469      -1.41538633
Au      -0.58338829       5.81916875       6.03783103       3.84584568       4.24922599       2.12656723
Au       1.96514870       3.91644726       6.36124698      -3.20252563       3.45329670      -1.00931733
Au       1.54545005       6.30815658       4.51920942       1.06855281      -2.28876620      -2.37980486
Au      -0.34064131       3.78806490       8.35312958      -0.11854766       0.39353050      -0.65205750
Au      -0.55502507       5.77848253      10.43498763       3.08560517       3.45683407      -3.90689907
Au       1.67074969       4.15831800      10.14360247       0.78443973      -0.43721575       0.69972557
Au       1.44585496       6.14095781       8.50129429      -0.02978722       0.27114710      -1.03425445
Au      -0.23629995       8.22627998      -0.05326100       2.62339344      -0.32315629       7.33952627
Au      -0.28014122      10.68066339       2.03212150      -1.29965843      -3.30686615       1.02078432
Au       1.81905389       7.79801794       2.16886770       1.75811950       2.60310507       0.78499800
Au       1.97878536      10.33402151       0.00416568       2.57250948       0.19994003       5.45250854
Au      -0.29940178       7.87787436       4.20929551      -2.05765979       2.18416350      -0.69128431
Au      -0.13438911      10.06042225       6.36644363      -1.70021209       3.44137657      -1.71735733
Au       1.67107473       8.40814742       6.06834014      -4.85042011      -8.01484952       2.48589930
Au       1.71632861       9.84714603       4.07649841      -1.21893872       2.55667975      -2.85758353
Au      -0.57816469       8.33260668       8.00592792       1.61403128      -3.34055811       1.07838280
Au      -0.08737346      10.13817833      10.73722264      -5.43622376      -0.46889100      -3.74904080
Au       1.35442787       7.93799688      10.61531904       2.72308443      -1.31505009      -2.18162885
Au       1.48547539      10.17072591       8.71179946       0.60716097      -0.31347321      -1.92409927
Au       4.07809280       0.14830540      -0.27204891      -9.23748922      -8.07322734       2.51751641
Au       3.95498723       1.99977685       2.23770114      -1.99115299      -1.48304261      -0.97631610
Au       5.95993513      -0.03041191       2.39465672      -0.14461903      -2.86475856      -4.56687183
Au       5.67775566       1.57115597      -0.19070082       9.67351524       7.35903734       2.61408745
Au       3.59008292      -0.05341169       4.05452972       0.20484804      -0.70069404       0.06640254
Au       3.65424652       2.18899572       6.53473195       7.56673811      -6.49952891      -6.37698395
Au       5.82612408      -0.30046044       5.99834911      -0.25736945      -0.04134340      -0.62568746
Au       5.76812284       1.75846179       3.81824930       1.83840834      -1.68935075       6.46543808
Au       3.97632576      -0.28509369       7.96217939      -2.68047135      -1.85352554      -0.39778354
Au       3.81378803       1.76139115      10.12814420      -3.67197667       1.36495332      -0.16032451
Au       5.48578331      -0.67772593      10.24698315       2.84720021       0.15208045      -1.28792904
Au       5.60668048       1.40421136       8.52518206       1.80011246       3.47162818      -1.95932605
Au       4.12034871       4.00782112       0.45383393      -2.39003607      -2.37293830      -1.25925899
Au       3.76983998       5.79013169       2.29005237       1.65372712       3.66603721       0.93831976
Au       5.65544515       3.88860542       2.61991504      -2.58946143       3.09012309      -8.57309233
Au       5.69500665       5.79641288      -0.02308835       1.94672104      13.73775448      14.03130323
Au       4.08698734       3.56997293       4.57124551     -16.22059442       0.64414698     -13.65792398
Au       3.34057705       6.19935851       6.17346351       1.99483292       0.05433016       1.90095672
Au       5.51144138       3.61288359       6.01356018      15.28987946       1.46807493      14.03645208
Au       5.36969357       5.68995822       4.40742119       0.49171807       4.77224780      -0.25496954
Au       3.74171195       3.72510351       8.45175696       1.49041219       3.93473171       1.59013082
Au       3.81298652       6.32359253      10.35292713      -5.90739487     -11.46634853       6.57944011
Au       5.51731059       4.18969671      10.72223901       1.63510003     -13.40370047     -13.71892675
Au       5.96438799       5.99517269       8.49339369      -2.84897809      -4.52320474      -0.99914542
Au       4.13261008       8.13585201       0.07744535      -6.81567775      -1.32508807       4.23783109
Au       4.08974715      10.46486135       2.04476836      -2.54278496       1.01491140       0.09448217
Au       5.41186822       8.36860382       2.20819997       1.65009861      -3.91384836       1.30452011
Au       5.88419521       9.85415459       0.13444885       2.03595878       4.63641252       2.38552358
Au       3.89424317       8.47765164       4.37099308       0.40485432      -2.99803327      -1.31451068
Au       3.24199696       9.92088073       6.23265503       6.64944600       7.60431826       3.41528592
Au       5.97623784       7.94045135       6.78803780      -4.19381969       1.00556733      -4.31725095
Au       5.92087814      10.06276375       4.08047888      -4.24779973       1.49615878       6.36356794
Au       3.98083409       7.64449699       8.71670670      -3.33467556       7.90563711     -13.18211817
Au       3.44437339       9.91669580      10.45170367      -0.13371612       0.09552815      -1.48787562
Au       5.41967151       8.09864831      10.55064699       9.02085343       0.95879207      -3.01950732
Au       5.34485821      10.06634109       8.44711984       0.87879291      -0.43240894      -0.59668978
Au       8.25095036       0.07311160       0.21140092      -6.14432637      -4.29964561      -8.03731175
Au       8.19804186       1.69851962       1.88116063      -6.44795014      10.41944734       2.16828455
Au       9.48422548      -0.06312158       2.08498221      10.33908332      -7.84935135       6.04167313
Au      10.13951304       1.73409765      -0.18218012      -5.36423774      -5.04504347       9.95683197
Au       7.84347596      -0.22293234       4.14130022       0.80534895      -0.43988077       1.83304800
Au       8.00229891       1.85584605       6.16514473      -1.83917341      -0.63334844       0.69046560
Au       9.92742943      -0.53196547       6.51159674      -0.75564091      -2.02452576      -2.30121092
Au       9.58150085       1.84261991       4.20352356       1.67589285      -0.76861691       0.96669670
Au       7.40762774      -0.25258393       8.14910509       1.54412216      -2.21033248      -0.68815196
Au       7.74540608       1.71478394       9.96919837      -3.58024808      -2.23296327       0.39140568
Au       9.42233402      -0.28509781      10.27745223       2.02723769      -1.26059841      -1.31896266
Au       9.63671729       1.25347147       8.17625741       0.35078861       3.02629708       0.79792888
Au       7.96651075       4.20499572       0.30068136     -11.70014186      -8.73044766       4.57365183
Au       7.77476848       5.91086587       2.47752082      -5.77307862      -3.87459882      -0.98542863
Au      10.00111319       3.58286529       2.47332235       0.44118527       1.90918562      -1.06046684
Au       9.56288247       5.52873942      -0.00742359       9.02354270      10.76009397       2.22908599
Au       7.37429508       3.66176564       4.00578327       8.11304856       0.16524990       4.65792321
Au       7.31653935       5.59490536       6.02786349       0.94606706       0.57950023       1.64274404
Au       9.54357346       4.00679267       6.40773301      -3.40833491      -3.70195848       1.07776245
Au       9.32589581       5.74546575       4.33926918       2.24325662      -1.16269616       0.20356584
Au       7.38111489       3.67825784       8.23601758       0.24909177       0.33783191      -0.13596237
Au       7.54954667       5.97689088      10.44294334       0.20186626       0.10723844      -0.12808132
Au       9.23401926       3.33494437      10.73764662       0.67947443       5.53264832      -7.78314859
Au       9.73585764       5.91349208       8.78853138      -1.51214135      -1.53295281      -3.12493497
Au       7.78064729       7.69057998       0.53693499      -2.33411960       1.38120850      -3.12564566
Au       7.38857467      10.20376576       2.37925357       5.35197510       0.07901259      -4.54212407
Au       9.30169353       7.58693805       2.34019984       6.10463134       5.22214905       2.05252517
Au       9.75993776       9.77621944       0.14218392      -0.51491187       1.03465202       1.93369817
Au       7.55455082       8.21716746       4.65520055      -0.77550387      -1.45169506      -3.16702873
Au       7.71219283       9.95331714       6.47480644       0.37732238       1.56507083       1.02679616
Au       9.36599185       7.59444994       6.10133428       2.09471385       0.60271034       2.81925975
Au       9.87854716       9.97867090       4.12178733      -0.53836944      -0.14321364       0.74012351
Au       7.58302908       7.72270355       8.43245518       5.91516002       3.22532639       2.76236116
Au       7.60893346      10.20304862      10.74421072      -1.30093825      -1.43830494      -1.68315717
Au       9.80839955       7.61475440      10.68033869      -5.01077784       1.30182548      -4.71814481
Au       9.80841603       9.77074469       8.82148315      -2.26493199       1.32817419       0.32669763
108
Lattice="11.772329859934885 -0.09802696211266303 0.2863709503448596 0.06442895347976225 11.976953976352005 0.31374466455238703 -0.38778475203138324 0.3063400623533935 12.376018410105578" Properties=species:S:1:pos:R:3:REF_forces:R:3 REF_energy=107.67278737138952 pbc="T T T"
Au      -0.28289900      -0.34967654       0.36098831      28.14997084      28.90917178     -23.90425262
Au      -0.40026609       2.42622497       2.05146374       5.72966821      -9.56125196       4.58938782
Au       1.78022764       0.15475406       2.10723562       1.34410809       0.96009438       0.48255811
Au       1.88483137       2.09195056      -0.01992750       0.12529066      -3.46610445       3.37662543
Au      -0.50177862       0.36182486       4.13705095       5.60954266      -2.47749755      -0.55821803
Au      -0.03380662       2.20946814       6.33165386      -4.28966892       3.48470892      -0.45664120
Au       1.54331439       0.48456071       6.19391587       2.19848724      -6.79187023      -3.67809854
Au       2.17960898       2.32746894       4.40142421      -0.56038341      -4.24832949       2.42118061
Au      -0.29042888      -0.17765838       8.10284866       0.60304668       0.92089317       1.73771244
Au      -0.18052973       2.11596505      10.04494135      -1.06761872      -1.94921210       0.50145985
Au       1.65310806      -0.03747080      10.20605358      -0.15569833       3.36796065       0.80798504
Au       1.71580039       1.87707174       8.04072104      -2.66274422       2.10075709       8.79264544
Au      -0.21045263       4.06576253       0.45113987       5.63258333       3.51154833      -8.09863860
Au      -0.24118699       6.21539263       1.97104487       1.09901460      -0.00458257       1.34031730
Au       2.02731249       3.73721235       2.49128465      -8.37707193       5.82249741      -4.01397207
Au       2.18827664       6.11672032      -0.18366976      -2.85517051      -3.19519105       3.44447642
Au       0.16134262       3.81511176       4.25671224      -2.83900339       1.85554103       0.18898849
Au       0.05965141       6.24698343       6.60010132      -2.58568500      -5.64774628      -1.04578442
Au       1.95672063       4.33401110       6.17933430      -2.45365636      -0.74345829       1.61023312
Au       1.76829252       6.07541486       4.39886889      -0.47149883       1.81444785      -2.04445601
Au      -0.08371004       4.24100449       8.52362628      -0.30026955      -1.55942028      -1.60162279
Au      -0.57033925       6.15947766      10.80086536       1.46971014       0.35537190      -0.55795733
Au       1.43394300       3.94619225      10.66150499       1.27731555       4.20989215      -2.39728830
Au       1.49128960       6.14245349       8.62474512       6.24978989      -5.18071167       1.37198927
Au       0.03083270       8.30584476       0.51168187      -2.15426870      -3.11226634      -1.75223463
Au      -0.00857955      10.40053115       2.15754272       5.80602993     -21.03837257      24.03522230
Au       1.72749037       8.15555077       2.37778700       1.37653460      -0.24056759       1.23506362
Au       1.81663130       9.86136232       0.09560398       3.70539470       1.36864757       1.02419632
Au      -0.29672723       7.98080607       4.67387833       5.03902581       2.02090765      -8.64365631
Au       0.12771671      10.14389956       6.43167870      -2.49247068       1.52662248      -0.00342026
Au       1.43629805       8.09130512       6.54392229       6.31362175       2.25619350       0.50324508
Au       2.10935635       9.95135426       4.77003286      -1.48539854      -1.81283816      -2.43743921
Au       0.05658369       7.85464945       8.78220049      -6.96635161       6.27233720      -0.56331568
Au      -0.49119974      10.57473279      10.67934642      28.20460014     -26.23284239     -10.94568995
Au       1.61138985       8.17274244      10.62047119       0.96369910       3.70349118      -0.26234955
Au       2.03232090      10.43822188       8.49178376      -0.89253718      -1.75511035       0.32917586
Au       4.20333174      -0.05511237       0.02949773     -11.17793198      -1.28415911       8.47153888
Au       3.66482006       2.27688403       2.30646833       7.14869593      -6.96734248      -1.42125385
Au       5.76642838       0.13194452       2.49466480      -1.60734383       1.70354161      -3.93702482
Au       5.65516216       1.86109917       0.09971657       4.51348750       3.43285395       6.02724937
Au       3.45566586      -0.06330770       4.43023086       0.47201479       3.28035614      -2.40752055
Au       3.54362785       2.36538540       6.69995982       4.78771434      -7.68255304     -11.44770836
Au       5.47144892       0.03188959       6.03626191       1.82612236       2.57465893       0.22856100
Au       5.92135677       2.03501885       4.39178474      -3.03525416       3.01582979       0.02690781
Au       3.88854146       0.39249434       8.35891643      -0.01437074      -1.42694503       0.81219388
Au       3.91755080       2.56431175      10.56566708     -20.00733249     -14.94769811      -0.70261157
Au       5.19373609       0.42704247      10.77006792       9.07605877      -2.25089370     -10.65768094
Au       5.68369083       2.31165852       8.33099058      -0.74719740      -0.54345904       1.13215063
Au       3.94726980       4.19812745       0.50080747      -2.88236469      -4.15333590      -9.58274085
Au       3.58386665       5.62060675       2.21387256      -0.73121001       8.49176017       3.11650526
Au       5.75574455       4.21302549       1.91731455       3.94363752      -4.63288098       7.52865402
Au       6.12958201       5.96852466       0.45831812      -0.77499751       3.42060751      -2.83525997
Au       3.82373156       4.29433561       4.27503352       2.49252294      -1.23005958       2.57747214
Au       3.63910474       6.21818661       6.39589449       0.62967672       1.28176469       1.02138471
Au       5.55649002       4.42731166       6.61439512       2.31323192      -0.87644407      -2.89889237
Au       5.54661978       6.23366164       4.22731473       8.61678830     -11.89612509       2.19487246
Au       3.63208175       3.93780668       8.14135575      -1.61549936       9.35980274       9.42965357
Au       3.55242139       6.25514984      10.40737535       1.19914468      -2.59477844       0.50450743
Au       5.24448969       3.99829775      10.35764161      16.27465546      18.00183992      -0.96987393
Au       5.73245801       5.96940916       8.57775745      -0.54658487       1.93150590       1.06705902
Au       3.94333429       7.76504656       0.49759383       0.38094270       1.80647254       0.92787599