1
Lattice="10.0 0.0 0.0 0.0 10.0 0.0 0.0 0.0 10.0" Properties=species:S:1:pos:R:3:initial_magmoms:R:1:magmoms:R:1:forces:R:3 energy=-1.2666119188792366 free_energy=-1.3143504815013478 dipole="5.8604072075205106e-15 5.426795328575479e-15 4.912750300842676e-15" magmom=1.9999498997065652 pbc="F F F"
C        5.00000000       5.00000000       5.00000000       1.00000000       0.65057863      -0.00000000       0.00000000       0.00000000
1
Lattice="10.0 0.0 0.0 0.0 10.0 0.0 0.0 0.0 10.0" Properties=species:S:1:pos:R:3:initial_magmoms:R:1:magmoms:R:1:forces:R:3 energy=-1.111589091132615 free_energy=-1.1115890911326158 dipole="1.5701051549259673e-15 1.6257384152112149e-15 1.6985981086816817e-15" magmom=1.0000000000000024 pbc="F F F"
H        5.00000000       5.00000000       5.00000000       1.00000000       0.26320747      -0.00000000      -0.00000000      -0.00000000
1
Lattice="10.0 0.0 0.0 0.0 10.0 0.0 0.0 0.0 10.0" Properties=species:S:1:pos:R:3:initial_magmoms:R:1:magmoms:R:1:forces:R:3 energy=-2.6230637910550523 free_energy=-2.6230637910550567 dipole="8.93028850581455e-15 1.033717753082417e-14 4.03052241169834e-15" magmom=3.0000336147425144 pbc="F F F"
N        5.00000000       5.00000000       5.00000000       1.00000000       1.04145406       0.00000000       0.00000000       0.00000000
1
Lattice="10.0 0.0 0.0 0.0 10.0 0.0 0.0 0.0 10.0" Properties=species:S:1:pos:R:3:initial_magmoms:R:1:magmoms:R:1:forces:R:3 energy=-1.3481819329878864 free_energy=-1.3959204956099973 dipole="1.0818647760154396e-14 8.0394928775624e-15 1.2072512544725597e-14" magmom=2.0000650904518618 pbc="F F F"
O        5.00000000       5.00000000       5.00000000       1.00000000       1.12523480      -0.00000000       0.00000000       0.00000000
